
     Program PWSCF v.7.2 starts on  9Jun2023 at 21: 5:25 

     This program is part of the open-source Quantum ESPRESSO suite
     for quantum simulation of materials; please cite
         "P. Giannozzi et al., J. Phys.:Condens. Matter 21 395502 (2009);
         "P. Giannozzi et al., J. Phys.:Condens. Matter 29 465901 (2017);
         "P. Giannozzi et al., J. Chem. Phys. 152 154105 (2020);
          URL http://www.quantum-espresso.org", 
     in publications or presentations arising from this work. More details at
     http://www.quantum-espresso.org/quote

     Parallel version (MPI), running on     1 processors

     MPI processes distributed on     1 nodes
     6283 MiB available memory on the printing compute node when the environment starts
 
     Waiting for input...
     Reading input from standard input
Warning: card &CELL ignored
Warning: card / ignored

     Current dimensions of program PWSCF are:
     Max number of different atomic species (ntypx) = 10
     Max number of k-points (npk) =  40000
     Max angular momentum in pseudopotentials (lmaxx) =  4
     file Mn.pbe-spn-kjpaw_psl.0.3.1.UPF: wavefunction(s)  3P 3D renormalized
     file Ni.pbe-spn-kjpaw_psl.1.0.0.UPF: wavefunction(s)  3P 3D renormalized
     file Sb.pbe-n-kjpaw_psl.1.0.0.UPF: wavefunction(s)  5S renormalized
     Message from routine setup:
     using ibrav=0 with symmetry is DISCOURAGED, use correct ibrav instead
 
     Subspace diagonalization in iterative solution of the eigenvalue problem:
     a serial algorithm will be used

 
     G-vector sticks info
     --------------------
     sticks:   dense  smooth     PW     G-vecs:    dense   smooth      PW
     Sum         793     649    199                24683    17657    2897
 
     Using Slab Decomposition
 


     bravais-lattice index     =            0
     lattice parameter (alat)  =       7.5501  a.u.
     unit-cell volume          =     509.5307 (a.u.)^3
     number of atoms/cell      =            4
     number of atomic types    =            3
     number of electrons       =        43.00
     number of Kohn-Sham states=           26
     kinetic-energy cutoff     =      40.4242  Ry
     charge density cutoff     =     202.1211  Ry
     scf convergence threshold =      8.0E-10
     mixing beta               =       0.0000
     number of iterations used =            8  plain     mixing
     energy convergence thresh.=      4.0E-05
     force convergence thresh. =      1.0E-04
     Exchange-correlation= SLA  PW   PBX  PBC
                           (   1   4   3   4   0   0   0)
     nstep                     =           50


     celldm(1)=   7.550094  celldm(2)=   0.000000  celldm(3)=   0.000000
     celldm(4)=   0.000000  celldm(5)=   0.000000  celldm(6)=   0.000000

     crystal axes: (cart. coord. in units of alat)
               a(1) = (   1.000000   0.000000   0.000000 )  
               a(2) = (  -0.500000   0.866025   0.000000 )  
               a(3) = (   0.000000   0.000000   1.367044 )  

     reciprocal axes: (cart. coord. in units 2 pi/alat)
               b(1) = (  1.000000  0.577350  0.000000 )  
               b(2) = (  0.000000  1.154701  0.000000 )  
               b(3) = (  0.000000  0.000000  0.731505 )  


     PseudoPot. # 1 for Mn read from file:
     ./pseudos/Mn.pbe-spn-kjpaw_psl.0.3.1.UPF
     MD5 check sum: ba19e6d7ccbc12830efad05ba8577d9c
     Pseudo is Projector augmented-wave + core cor, Zval = 15.0
     Generated using &quot;atomic&quot; code by A. Dal Corso  v.6.2.2
     Shape of augmentation charge: PSQ
     Using radial grid of 1187 points,  6 beta functions with: 
                l(1) =   0
                l(2) =   0
                l(3) =   1
                l(4) =   1
                l(5) =   2
                l(6) =   2
     Q(r) pseudized with 0 coefficients 


     PseudoPot. # 2 for Ni read from file:
     ./pseudos/Ni.pbe-spn-kjpaw_psl.1.0.0.UPF
     MD5 check sum: 6e86b733589c3ad8389697b807d86aa7
     Pseudo is Projector augmented-wave + core cor, Zval = 18.0
     Generated using &quot;atomic&quot; code by A. Dal Corso  v.6.3
     Shape of augmentation charge: PSQ
     Using radial grid of 1195 points,  6 beta functions with: 
                l(1) =   0
                l(2) =   0
                l(3) =   1
                l(4) =   1
                l(5) =   2
                l(6) =   2
     Q(r) pseudized with 0 coefficients 


     PseudoPot. # 3 for Sb read from file:
     ./pseudos/Sb.pbe-n-kjpaw_psl.1.0.0.UPF
     MD5 check sum: 6b903ae7923846f66e229fa892705b98
     Pseudo is Projector augmented-wave + core cor, Zval =  5.0
     Generated using &quot;atomic&quot; code by A. Dal Corso  v.6.2.2
     Shape of augmentation charge: PSQ
     Using radial grid of 1243 points,  6 beta functions with: 
                l(1) =   0
                l(2) =   0
                l(3) =   1
                l(4) =   1
                l(5) =   2
                l(6) =   2
     Q(r) pseudized with 0 coefficients 


     atomic species   valence    mass     pseudopotential
        Mn            15.00    54.93804     Mn( 1.00)
        Ni            18.00    58.69340     Ni( 1.00)
        Sb             5.00   121.76000     Sb( 1.00)

     12 Sym. Ops., with inversion, found



   Cartesian axes

     site n.     atom                  positions (alat units)
         1           Mn  tau(   1) = (   0.0000000   0.0000000   0.6835222  )
         2           Ni  tau(   2) = (   0.0000000   0.0000000   0.0000000  )
         3           Sb  tau(   3) = (  -0.0000000   0.5773503   0.3204024  )
         4           Sb  tau(   4) = (   0.5000000   0.2886751   1.0466420  )

     number of k points=   146  Gaussian smearing, width (Ry)=  0.0147

     Number of k-points >= 100: set verbosity='high' to print them.

     Dense  grid:    24683 G-vectors     FFT dimensions: (  36,  36,  48)

     Smooth grid:    17657 G-vectors     FFT dimensions: (  32,  32,  45)

     Estimated max dynamical RAM per process >     226.49 MB

     Check: negative core charge=   -0.000042

     Initial potential from superposition of free atoms

     starting charge      42.9980, renormalised to      43.0000
     Starting wfcs are   28 randomized atomic wfcs
     Checking if some PAW data can be deallocated... 

     total cpu time spent up to now is        8.6 secs

     Self-consistent Calculation

     iteration #  1     ecut=    40.42 Ry     beta= 0.00
     Davidson diagonalization with overlap
     ethr =  1.00E-02,  avg # of iterations =  2.1

     total cpu time spent up to now is       28.5 secs

     total energy              =   -1410.66449133 Ry
     estimated scf accuracy    <       1.63632691 Ry

     iteration #  2     ecut=    40.42 Ry     beta= 0.00
     Davidson diagonalization with overlap
     ethr =  3.81E-03,  avg # of iterations =  1.0

     total cpu time spent up to now is       44.7 secs

     total energy              =   -1410.67917982 Ry
     estimated scf accuracy    <       1.52604520 Ry

     iteration #  3     ecut=    40.42 Ry     beta= 0.00
     Davidson diagonalization with overlap
     ethr =  3.55E-03,  avg # of iterations =  1.0

     total cpu time spent up to now is       61.1 secs

     total energy              =   -1410.68409357 Ry
     estimated scf accuracy    <       1.49943556 Ry

     iteration #  4     ecut=    40.42 Ry     beta= 0.00
     Davidson diagonalization with overlap
     ethr =  3.49E-03,  avg # of iterations =  1.0

     total cpu time spent up to now is       77.2 secs

     total energy              =   -1410.68618986 Ry
     estimated scf accuracy    <       1.47905848 Ry

     iteration #  5     ecut=    40.42 Ry     beta= 0.00
     Davidson diagonalization with overlap
     ethr =  3.44E-03,  avg # of iterations =  1.0

     total cpu time spent up to now is       93.7 secs

     total energy              =   -1410.68737550 Ry
     estimated scf accuracy    <       1.47446766 Ry

     iteration #  6     ecut=    40.42 Ry     beta= 0.00
     Davidson diagonalization with overlap
     ethr =  3.43E-03,  avg # of iterations =  1.0

     total cpu time spent up to now is      109.7 secs

     total energy              =   -1410.68804558 Ry
     estimated scf accuracy    <       1.47050424 Ry

     iteration #  7     ecut=    40.42 Ry     beta= 0.00
     Davidson diagonalization with overlap
     ethr =  3.42E-03,  avg # of iterations =  1.0

     total cpu time spent up to now is      125.8 secs

     total energy              =   -1410.68848089 Ry
     estimated scf accuracy    <       1.47004457 Ry

     iteration #  8     ecut=    40.42 Ry     beta= 0.00
     Davidson diagonalization with overlap
     ethr =  3.42E-03,  avg # of iterations =  1.0

     total cpu time spent up to now is      142.4 secs

     total energy              =   -1410.68876456 Ry
     estimated scf accuracy    <       1.46974777 Ry

     iteration #  9     ecut=    40.42 Ry     beta= 0.00
     Davidson diagonalization with overlap
     ethr =  3.42E-03,  avg # of iterations =  1.0

     total cpu time spent up to now is      158.5 secs

     total energy              =   -1410.68897255 Ry
     estimated scf accuracy    <       1.47047876 Ry

     iteration # 10     ecut=    40.42 Ry     beta= 0.00
     Davidson diagonalization with overlap
     ethr =  3.42E-03,  avg # of iterations =  1.0

     total cpu time spent up to now is      174.7 secs

     total energy              =   -1410.68912151 Ry
     estimated scf accuracy    <       1.47087766 Ry

     iteration # 11     ecut=    40.42 Ry     beta= 0.00
     Davidson diagonalization with overlap
     ethr =  3.42E-03,  avg # of iterations =  1.0

     total cpu time spent up to now is      190.5 secs

     total energy              =   -1410.68923767 Ry
     estimated scf accuracy    <       1.47193779 Ry

     iteration # 12     ecut=    40.42 Ry     beta= 0.00
     Davidson diagonalization with overlap
     ethr =  3.42E-03,  avg # of iterations =  1.0

     total cpu time spent up to now is      206.7 secs

     total energy              =   -1410.68931981 Ry
     estimated scf accuracy    <       1.47230181 Ry

     iteration # 13     ecut=    40.42 Ry     beta= 0.00
     Davidson diagonalization with overlap
     ethr =  3.42E-03,  avg # of iterations =  1.0

     total cpu time spent up to now is      222.6 secs

     total energy              =   -1410.68938334 Ry
     estimated scf accuracy    <       1.47318076 Ry

     iteration # 14     ecut=    40.42 Ry     beta= 0.00
     Davidson diagonalization with overlap
     ethr =  3.42E-03,  avg # of iterations =  1.0

     total cpu time spent up to now is      238.7 secs

     total energy              =   -1410.68942699 Ry
     estimated scf accuracy    <       1.47347101 Ry

     iteration # 15     ecut=    40.42 Ry     beta= 0.00
     Davidson diagonalization with overlap
     ethr =  3.42E-03,  avg # of iterations =  1.0

     total cpu time spent up to now is      255.1 secs

     total energy              =   -1410.68945917 Ry
     estimated scf accuracy    <       1.47414470 Ry

     iteration # 16     ecut=    40.42 Ry     beta= 0.00
     Davidson diagonalization with overlap
     ethr =  3.42E-03,  avg # of iterations =  1.0

     total cpu time spent up to now is      271.1 secs

     total energy              =   -1410.68948105 Ry
     estimated scf accuracy    <       1.47436261 Ry

     iteration # 17     ecut=    40.42 Ry     beta= 0.00
     Davidson diagonalization with overlap
     ethr =  3.42E-03,  avg # of iterations =  1.0

     total cpu time spent up to now is      287.1 secs

     total energy              =   -1410.68949663 Ry
     estimated scf accuracy    <       1.47487256 Ry

     iteration # 18     ecut=    40.42 Ry     beta= 0.00
     Davidson diagonalization with overlap
     ethr =  3.42E-03,  avg # of iterations =  1.0

     total cpu time spent up to now is      302.8 secs

     total energy              =   -1410.68950726 Ry
     estimated scf accuracy    <       1.47501148 Ry

     iteration # 19     ecut=    40.42 Ry     beta= 0.00
     Davidson diagonalization with overlap
     ethr =  3.42E-03,  avg # of iterations =  1.0

     total cpu time spent up to now is      319.1 secs

     total energy              =   -1410.68951489 Ry
     estimated scf accuracy    <       1.47537436 Ry

     iteration # 20     ecut=    40.42 Ry     beta= 0.00
     Davidson diagonalization with overlap
     ethr =  3.42E-03,  avg # of iterations =  1.0

     total cpu time spent up to now is      334.8 secs

     total energy              =   -1410.68952016 Ry
     estimated scf accuracy    <       1.47547551 Ry

     iteration # 21     ecut=    40.42 Ry     beta= 0.00
     Davidson diagonalization with overlap
     ethr =  3.42E-03,  avg # of iterations =  1.0

     total cpu time spent up to now is      351.4 secs

     total energy              =   -1410.68952388 Ry
     estimated scf accuracy    <       1.47571929 Ry

     iteration # 22     ecut=    40.42 Ry     beta= 0.00
     Davidson diagonalization with overlap
     ethr =  3.42E-03,  avg # of iterations =  1.0

     total cpu time spent up to now is      367.3 secs

     total energy              =   -1410.68952645 Ry
     estimated scf accuracy    <       1.47579828 Ry

     iteration # 23     ecut=    40.42 Ry     beta= 0.00
     Davidson diagonalization with overlap
     ethr =  3.42E-03,  avg # of iterations =  1.0

     total cpu time spent up to now is      384.0 secs

     total energy              =   -1410.68952826 Ry
     estimated scf accuracy    <       1.47596119 Ry

     iteration # 24     ecut=    40.42 Ry     beta= 0.00
     Davidson diagonalization with overlap
     ethr =  3.42E-03,  avg # of iterations =  1.0

     total cpu time spent up to now is      400.1 secs

     total energy              =   -1410.68952951 Ry
     estimated scf accuracy    <       1.47601788 Ry

     iteration # 25     ecut=    40.42 Ry     beta= 0.00
     Davidson diagonalization with overlap
     ethr =  3.42E-03,  avg # of iterations =  1.0

     total cpu time spent up to now is      416.3 secs

     total energy              =   -1410.68953038 Ry
     estimated scf accuracy    <       1.47612108 Ry

     iteration # 26     ecut=    40.42 Ry     beta= 0.00
     Davidson diagonalization with overlap
     ethr =  3.42E-03,  avg # of iterations =  1.0

     total cpu time spent up to now is      432.6 secs

     total energy              =   -1410.68953098 Ry
     estimated scf accuracy    <       1.47616002 Ry

     iteration # 27     ecut=    40.42 Ry     beta= 0.00
     Davidson diagonalization with overlap
     ethr =  3.42E-03,  avg # of iterations =  1.0

     total cpu time spent up to now is      448.8 secs

     total energy              =   -1410.68953139 Ry
     estimated scf accuracy    <       1.47622306 Ry

     iteration # 28     ecut=    40.42 Ry     beta= 0.00
     Davidson diagonalization with overlap
     ethr =  3.42E-03,  avg # of iterations =  1.0

     total cpu time spent up to now is      465.6 secs

     total energy              =   -1410.68953168 Ry
     estimated scf accuracy    <       1.47624770 Ry

     iteration # 29     ecut=    40.42 Ry     beta= 0.00
     Davidson diagonalization with overlap
     ethr =  3.42E-03,  avg # of iterations =  1.0

     total cpu time spent up to now is      481.7 secs

     total energy              =   -1410.68953188 Ry
     estimated scf accuracy    <       1.47629015 Ry

     iteration # 30     ecut=    40.42 Ry     beta= 0.00
     Davidson diagonalization with overlap
     ethr =  3.42E-03,  avg # of iterations =  1.0

     total cpu time spent up to now is      498.2 secs

     total energy              =   -1410.68953202 Ry
     estimated scf accuracy    <       1.47630484 Ry

     iteration # 31     ecut=    40.42 Ry     beta= 0.00
     Davidson diagonalization with overlap
     ethr =  3.42E-03,  avg # of iterations =  1.0

     total cpu time spent up to now is      514.1 secs

     total energy              =   -1410.68953212 Ry
     estimated scf accuracy    <       1.47633247 Ry

     iteration # 32     ecut=    40.42 Ry     beta= 0.00
     Davidson diagonalization with overlap
     ethr =  3.42E-03,  avg # of iterations =  1.0

     total cpu time spent up to now is      530.7 secs

     total energy              =   -1410.68953219 Ry
     estimated scf accuracy    <       1.47634225 Ry

     iteration # 33     ecut=    40.42 Ry     beta= 0.00
     Davidson diagonalization with overlap
     ethr =  3.42E-03,  avg # of iterations =  1.0

     total cpu time spent up to now is      546.5 secs

     total energy              =   -1410.68953224 Ry
     estimated scf accuracy    <       1.47636020 Ry

     iteration # 34     ecut=    40.42 Ry     beta= 0.00
     Davidson diagonalization with overlap
     ethr =  3.42E-03,  avg # of iterations =  1.0

     total cpu time spent up to now is      564.1 secs

     total energy              =   -1410.68953228 Ry
     estimated scf accuracy    <       1.47636663 Ry

     iteration # 35     ecut=    40.42 Ry     beta= 0.00
     Davidson diagonalization with overlap
     ethr =  3.42E-03,  avg # of iterations =  1.0

     total cpu time spent up to now is      580.1 secs

     total energy              =   -1410.68953230 Ry
     estimated scf accuracy    <       1.47637871 Ry

     iteration # 36     ecut=    40.42 Ry     beta= 0.00
     Davidson diagonalization with overlap
     ethr =  3.42E-03,  avg # of iterations =  1.0

     total cpu time spent up to now is      595.9 secs

     total energy              =   -1410.68953232 Ry
     estimated scf accuracy    <       1.47638320 Ry

     iteration # 37     ecut=    40.42 Ry     beta= 0.00
     Davidson diagonalization with overlap
     ethr =  3.42E-03,  avg # of iterations =  1.0

     total cpu time spent up to now is      612.1 secs

     total energy              =   -1410.68953234 Ry
     estimated scf accuracy    <       1.47639175 Ry

     iteration # 38     ecut=    40.42 Ry     beta= 0.00
     Davidson diagonalization with overlap
     ethr =  3.42E-03,  avg # of iterations =  1.0

     total cpu time spent up to now is      628.3 secs

     total energy              =   -1410.68953235 Ry
     estimated scf accuracy    <       1.47639476 Ry

     iteration # 39     ecut=    40.42 Ry     beta= 0.00
     Davidson diagonalization with overlap
     ethr =  3.42E-03,  avg # of iterations =  1.0

     total cpu time spent up to now is      645.1 secs

     total energy              =   -1410.68953236 Ry
     estimated scf accuracy    <       1.47640096 Ry

     iteration # 40     ecut=    40.42 Ry     beta= 0.00
     Davidson diagonalization with overlap
     ethr =  3.42E-03,  avg # of iterations =  1.0

     total cpu time spent up to now is      661.4 secs

     total energy              =   -1410.68953236 Ry
     estimated scf accuracy    <       1.47640298 Ry

     iteration # 41     ecut=    40.42 Ry     beta= 0.00
     Davidson diagonalization with overlap
     ethr =  3.42E-03,  avg # of iterations =  1.0

     total cpu time spent up to now is      677.7 secs

     total energy              =   -1410.68953237 Ry
     estimated scf accuracy    <       1.47640748 Ry

     iteration # 42     ecut=    40.42 Ry     beta= 0.00
     Davidson diagonalization with overlap
     ethr =  3.42E-03,  avg # of iterations =  1.0

     total cpu time spent up to now is      693.7 secs

     total energy              =   -1410.68953237 Ry
     estimated scf accuracy    <       1.47640896 Ry

     iteration # 43     ecut=    40.42 Ry     beta= 0.00
     Davidson diagonalization with overlap
     ethr =  3.42E-03,  avg # of iterations =  1.0

     total cpu time spent up to now is      710.1 secs

     total energy              =   -1410.68953237 Ry
     estimated scf accuracy    <       1.47641241 Ry

     iteration # 44     ecut=    40.42 Ry     beta= 0.00
     Davidson diagonalization with overlap
     ethr =  3.42E-03,  avg # of iterations =  1.0

     total cpu time spent up to now is      726.0 secs

     total energy              =   -1410.68953237 Ry
     estimated scf accuracy    <       1.47641340 Ry

     iteration # 45     ecut=    40.42 Ry     beta= 0.00
     Davidson diagonalization with overlap
     ethr =  3.42E-03,  avg # of iterations =  1.0

     total cpu time spent up to now is      742.1 secs

     total energy              =   -1410.68953238 Ry
     estimated scf accuracy    <       1.47641598 Ry

     iteration # 46     ecut=    40.42 Ry     beta= 0.00
     Davidson diagonalization with overlap
     ethr =  3.42E-03,  avg # of iterations =  1.0

     total cpu time spent up to now is      758.5 secs

     total energy              =   -1410.68953238 Ry
     estimated scf accuracy    <       1.47641666 Ry

     iteration # 47     ecut=    40.42 Ry     beta= 0.00
     Davidson diagonalization with overlap
     ethr =  3.42E-03,  avg # of iterations =  1.0

     total cpu time spent up to now is      774.5 secs

     total energy              =   -1410.68953238 Ry
     estimated scf accuracy    <       1.47641863 Ry

     iteration # 48     ecut=    40.42 Ry     beta= 0.00
     Davidson diagonalization with overlap
     ethr =  3.42E-03,  avg # of iterations =  1.0

     total cpu time spent up to now is      790.9 secs

     total energy              =   -1410.68953238 Ry
     estimated scf accuracy    <       1.47641909 Ry

     iteration # 49     ecut=    40.42 Ry     beta= 0.00
     Davidson diagonalization with overlap
     ethr =  3.42E-03,  avg # of iterations =  1.0

     total cpu time spent up to now is      806.8 secs

     total energy              =   -1410.68953238 Ry
     estimated scf accuracy    <       1.47642058 Ry

     iteration # 50     ecut=    40.42 Ry     beta= 0.00
     Davidson diagonalization with overlap
     ethr =  3.42E-03,  avg # of iterations =  1.0

     total cpu time spent up to now is      823.4 secs

     total energy              =   -1410.68953238 Ry
     estimated scf accuracy    <       1.47642097 Ry

     iteration # 51     ecut=    40.42 Ry     beta= 0.00
     Davidson diagonalization with overlap
     ethr =  3.42E-03,  avg # of iterations =  1.0

     total cpu time spent up to now is      839.4 secs

     total energy              =   -1410.68953238 Ry
     estimated scf accuracy    <       1.47642206 Ry

     iteration # 52     ecut=    40.42 Ry     beta= 0.00
     Davidson diagonalization with overlap
     ethr =  3.42E-03,  avg # of iterations =  1.0

     total cpu time spent up to now is      855.7 secs

     total energy              =   -1410.68953238 Ry
     estimated scf accuracy    <       1.47642236 Ry

     iteration # 53     ecut=    40.42 Ry     beta= 0.00
     Davidson diagonalization with overlap
     ethr =  3.42E-03,  avg # of iterations =  1.0

     total cpu time spent up to now is      871.8 secs

     total energy              =   -1410.68953238 Ry
     estimated scf accuracy    <       1.47642320 Ry

     iteration # 54     ecut=    40.42 Ry     beta= 0.00
     Davidson diagonalization with overlap
     ethr =  3.42E-03,  avg # of iterations =  1.0

     total cpu time spent up to now is      887.9 secs

     total energy              =   -1410.68953238 Ry
     estimated scf accuracy    <       1.47642340 Ry

     iteration # 55     ecut=    40.42 Ry     beta= 0.00
     Davidson diagonalization with overlap
     ethr =  3.42E-03,  avg # of iterations =  1.0

     total cpu time spent up to now is      904.1 secs

     total energy              =   -1410.68953238 Ry
     estimated scf accuracy    <       1.47642404 Ry

     iteration # 56     ecut=    40.42 Ry     beta= 0.00
     Davidson diagonalization with overlap
     ethr =  3.42E-03,  avg # of iterations =  1.0

     total cpu time spent up to now is      920.0 secs

     total energy              =   -1410.68953238 Ry
     estimated scf accuracy    <       1.47642419 Ry

     iteration # 57     ecut=    40.42 Ry     beta= 0.00
     Davidson diagonalization with overlap
     ethr =  3.42E-03,  avg # of iterations =  1.0

     total cpu time spent up to now is      936.5 secs

     total energy              =   -1410.68953238 Ry
     estimated scf accuracy    <       1.47642474 Ry

     iteration # 58     ecut=    40.42 Ry     beta= 0.00
     Davidson diagonalization with overlap
     ethr =  3.42E-03,  avg # of iterations =  1.0

     total cpu time spent up to now is      952.4 secs

     total energy              =   -1410.68953238 Ry
     estimated scf accuracy    <       1.47642484 Ry

     iteration # 59     ecut=    40.42 Ry     beta= 0.00
     Davidson diagonalization with overlap
     ethr =  3.42E-03,  avg # of iterations =  1.0

     total cpu time spent up to now is      968.8 secs

     total energy              =   -1410.68953238 Ry
     estimated scf accuracy    <       1.47642526 Ry

     iteration # 60     ecut=    40.42 Ry     beta= 0.00
     Davidson diagonalization with overlap
     ethr =  3.42E-03,  avg # of iterations =  1.0

     total cpu time spent up to now is      984.7 secs

     total energy              =   -1410.68953238 Ry
     estimated scf accuracy    <       1.47642534 Ry

     iteration # 61     ecut=    40.42 Ry     beta= 0.00
     Davidson diagonalization with overlap
     ethr =  3.42E-03,  avg # of iterations =  1.0

     total cpu time spent up to now is     1001.1 secs

     total energy              =   -1410.68953238 Ry
     estimated scf accuracy    <       1.47642567 Ry

     iteration # 62     ecut=    40.42 Ry     beta= 0.00
     Davidson diagonalization with overlap
     ethr =  3.42E-03,  avg # of iterations =  1.0

     total cpu time spent up to now is     1017.0 secs

     total energy              =   -1410.68953238 Ry
     estimated scf accuracy    <       1.47642572 Ry

     iteration # 63     ecut=    40.42 Ry     beta= 0.00
     Davidson diagonalization with overlap
     ethr =  3.42E-03,  avg # of iterations =  1.0

     total cpu time spent up to now is     1033.0 secs

     total energy              =   -1410.68953238 Ry
     estimated scf accuracy    <       1.47642599 Ry

     iteration # 64     ecut=    40.42 Ry     beta= 0.00
     Davidson diagonalization with overlap
     ethr =  3.42E-03,  avg # of iterations =  1.0

     total cpu time spent up to now is     1049.4 secs

     total energy              =   -1410.68953238 Ry
     estimated scf accuracy    <       1.47642604 Ry

     iteration # 65     ecut=    40.42 Ry     beta= 0.00
     Davidson diagonalization with overlap
     ethr =  3.42E-03,  avg # of iterations =  1.0

     total cpu time spent up to now is     1065.6 secs

     total energy              =   -1410.68953238 Ry
     estimated scf accuracy    <       1.47642625 Ry

     iteration # 66     ecut=    40.42 Ry     beta= 0.00
     Davidson diagonalization with overlap
     ethr =  3.42E-03,  avg # of iterations =  1.0

     total cpu time spent up to now is     1082.4 secs

     total energy              =   -1410.68953238 Ry
     estimated scf accuracy    <       1.47642628 Ry

     iteration # 67     ecut=    40.42 Ry     beta= 0.00
     Davidson diagonalization with overlap
     ethr =  3.42E-03,  avg # of iterations =  1.0

     total cpu time spent up to now is     1098.6 secs

     total energy              =   -1410.68953238 Ry
     estimated scf accuracy    <       1.47642644 Ry

     iteration # 68     ecut=    40.42 Ry     beta= 0.00
     Davidson diagonalization with overlap
     ethr =  3.42E-03,  avg # of iterations =  1.0

     total cpu time spent up to now is     1115.1 secs

     total energy              =   -1410.68953238 Ry
     estimated scf accuracy    <       1.47642648 Ry

     iteration # 69     ecut=    40.42 Ry     beta= 0.00
     Davidson diagonalization with overlap
     ethr =  3.42E-03,  avg # of iterations =  1.0

     total cpu time spent up to now is     1130.7 secs

     total energy              =   -1410.68953238 Ry
     estimated scf accuracy    <       1.47642661 Ry

     iteration # 70     ecut=    40.42 Ry     beta= 0.00
     Davidson diagonalization with overlap
     ethr =  3.42E-03,  avg # of iterations =  1.0

     total cpu time spent up to now is     1146.9 secs

     total energy              =   -1410.68953238 Ry
     estimated scf accuracy    <       1.47642663 Ry

     iteration # 71     ecut=    40.42 Ry     beta= 0.00
     Davidson diagonalization with overlap
     ethr =  3.42E-03,  avg # of iterations =  1.0

     total cpu time spent up to now is     1162.7 secs

     total energy              =   -1410.68953238 Ry
     estimated scf accuracy    <       1.47642673 Ry

     iteration # 72     ecut=    40.42 Ry     beta= 0.00
     Davidson diagonalization with overlap
     ethr =  3.42E-03,  avg # of iterations =  1.0

     total cpu time spent up to now is     1178.6 secs

     total energy              =   -1410.68953238 Ry
     estimated scf accuracy    <       1.47642675 Ry

     iteration # 73     ecut=    40.42 Ry     beta= 0.00
     Davidson diagonalization with overlap
     ethr =  3.42E-03,  avg # of iterations =  1.0

     total cpu time spent up to now is     1194.7 secs

     total energy              =   -1410.68953238 Ry
     estimated scf accuracy    <       1.47642683 Ry

     iteration # 74     ecut=    40.42 Ry     beta= 0.00
     Davidson diagonalization with overlap
     ethr =  3.42E-03,  avg # of iterations =  1.0

     total cpu time spent up to now is     1210.8 secs

     total energy              =   -1410.68953238 Ry
     estimated scf accuracy    <       1.47642684 Ry

     iteration # 75     ecut=    40.42 Ry     beta= 0.00
     Davidson diagonalization with overlap
     ethr =  3.42E-03,  avg # of iterations =  1.0

     total cpu time spent up to now is     1227.1 secs

     total energy              =   -1410.68953238 Ry
     estimated scf accuracy    <       1.47642691 Ry

     iteration # 76     ecut=    40.42 Ry     beta= 0.00
     Davidson diagonalization with overlap
     ethr =  3.42E-03,  avg # of iterations =  1.0

     total cpu time spent up to now is     1243.2 secs

     total energy              =   -1410.68953238 Ry
     estimated scf accuracy    <       1.47642692 Ry

     iteration # 77     ecut=    40.42 Ry     beta= 0.00
     Davidson diagonalization with overlap
     ethr =  3.42E-03,  avg # of iterations =  1.0

     total cpu time spent up to now is     1259.5 secs

     total energy              =   -1410.68953238 Ry
     estimated scf accuracy    <       1.47642697 Ry

     iteration # 78     ecut=    40.42 Ry     beta= 0.00
     Davidson diagonalization with overlap
     ethr =  3.42E-03,  avg # of iterations =  1.0

     total cpu time spent up to now is     1275.4 secs

     total energy              =   -1410.68953238 Ry
     estimated scf accuracy    <       1.47642698 Ry

     iteration # 79     ecut=    40.42 Ry     beta= 0.00
     Davidson diagonalization with overlap
     ethr =  3.42E-03,  avg # of iterations =  1.0

     total cpu time spent up to now is     1291.8 secs

     total energy              =   -1410.68953238 Ry
     estimated scf accuracy    <       1.47642702 Ry

     iteration # 80     ecut=    40.42 Ry     beta= 0.00
     Davidson diagonalization with overlap
     ethr =  3.42E-03,  avg # of iterations =  1.0

     total cpu time spent up to now is     1308.1 secs

     total energy              =   -1410.68953238 Ry
     estimated scf accuracy    <       1.47642703 Ry

     iteration # 81     ecut=    40.42 Ry     beta= 0.00
     Davidson diagonalization with overlap
     ethr =  3.42E-03,  avg # of iterations =  1.0

     total cpu time spent up to now is     1324.3 secs

     total energy              =   -1410.68953238 Ry
     estimated scf accuracy    <       1.47642706 Ry

     iteration # 82     ecut=    40.42 Ry     beta= 0.00
     Davidson diagonalization with overlap
     ethr =  3.42E-03,  avg # of iterations =  1.0

     total cpu time spent up to now is     1340.3 secs

     total energy              =   -1410.68953238 Ry
     estimated scf accuracy    <       1.47642707 Ry

     iteration # 83     ecut=    40.42 Ry     beta= 0.00
     Davidson diagonalization with overlap
     ethr =  3.42E-03,  avg # of iterations =  1.0

     total cpu time spent up to now is     1356.2 secs

     total energy              =   -1410.68953238 Ry
     estimated scf accuracy    <       1.47642709 Ry

     iteration # 84     ecut=    40.42 Ry     beta= 0.00
     Davidson diagonalization with overlap
     ethr =  3.42E-03,  avg # of iterations =  1.0

     total cpu time spent up to now is     1372.3 secs

     total energy              =   -1410.68953238 Ry
     estimated scf accuracy    <       1.47642710 Ry

     iteration # 85     ecut=    40.42 Ry     beta= 0.00
     Davidson diagonalization with overlap
     ethr =  3.42E-03,  avg # of iterations =  1.0

     total cpu time spent up to now is     1388.0 secs

     total energy              =   -1410.68953238 Ry
     estimated scf accuracy    <       1.47642712 Ry

     iteration # 86     ecut=    40.42 Ry     beta= 0.00
     Davidson diagonalization with overlap
     ethr =  3.42E-03,  avg # of iterations =  1.0

     total cpu time spent up to now is     1404.2 secs

     total energy              =   -1410.68953238 Ry
     estimated scf accuracy    <       1.47642712 Ry

     iteration # 87     ecut=    40.42 Ry     beta= 0.00
     Davidson diagonalization with overlap
     ethr =  3.42E-03,  avg # of iterations =  1.0

     total cpu time spent up to now is     1420.0 secs

     total energy              =   -1410.68953238 Ry
     estimated scf accuracy    <       1.47642713 Ry

     iteration # 88     ecut=    40.42 Ry     beta= 0.00
     Davidson diagonalization with overlap
     ethr =  3.42E-03,  avg # of iterations =  1.0

     total cpu time spent up to now is     1435.9 secs

     total energy              =   -1410.68953238 Ry
     estimated scf accuracy    <       1.47642714 Ry

     iteration # 89     ecut=    40.42 Ry     beta= 0.00
     Davidson diagonalization with overlap
     ethr =  3.42E-03,  avg # of iterations =  1.0

     total cpu time spent up to now is     1452.2 secs

     total energy              =   -1410.68953238 Ry
     estimated scf accuracy    <       1.47642715 Ry

     iteration # 90     ecut=    40.42 Ry     beta= 0.00
     Davidson diagonalization with overlap
     ethr =  3.42E-03,  avg # of iterations =  1.0

     total cpu time spent up to now is     1468.4 secs

     total energy              =   -1410.68953238 Ry
     estimated scf accuracy    <       1.47642715 Ry

     iteration # 91     ecut=    40.42 Ry     beta= 0.00
     Davidson diagonalization with overlap
     ethr =  3.42E-03,  avg # of iterations =  1.0

     total cpu time spent up to now is     1484.7 secs

     total energy              =   -1410.68953238 Ry
     estimated scf accuracy    <       1.47642716 Ry

     iteration # 92     ecut=    40.42 Ry     beta= 0.00
     Davidson diagonalization with overlap
     ethr =  3.42E-03,  avg # of iterations =  1.0

     total cpu time spent up to now is     1500.8 secs

     total energy              =   -1410.68953238 Ry
     estimated scf accuracy    <       1.47642716 Ry

     iteration # 93     ecut=    40.42 Ry     beta= 0.00
     Davidson diagonalization with overlap
     ethr =  3.42E-03,  avg # of iterations =  1.0

     total cpu time spent up to now is     1517.4 secs

     total energy              =   -1410.68953238 Ry
     estimated scf accuracy    <       1.47642717 Ry

     iteration # 94     ecut=    40.42 Ry     beta= 0.00
     Davidson diagonalization with overlap
     ethr =  3.42E-03,  avg # of iterations =  1.0

     total cpu time spent up to now is     1533.3 secs

     total energy              =   -1410.68953238 Ry
     estimated scf accuracy    <       1.47642717 Ry

     iteration # 95     ecut=    40.42 Ry     beta= 0.00
     Davidson diagonalization with overlap
     ethr =  3.42E-03,  avg # of iterations =  1.0

     total cpu time spent up to now is     1549.4 secs

     total energy              =   -1410.68953238 Ry
     estimated scf accuracy    <       1.47642718 Ry

     iteration # 96     ecut=    40.42 Ry     beta= 0.00
     Davidson diagonalization with overlap
     ethr =  3.42E-03,  avg # of iterations =  1.0

     total cpu time spent up to now is     1565.3 secs

     total energy              =   -1410.68953238 Ry
     estimated scf accuracy    <       1.47642718 Ry

     iteration # 97     ecut=    40.42 Ry     beta= 0.00
     Davidson diagonalization with overlap
     ethr =  3.42E-03,  avg # of iterations =  1.0

     total cpu time spent up to now is     1581.4 secs

     total energy              =   -1410.68953238 Ry
     estimated scf accuracy    <       1.47642719 Ry

     iteration # 98     ecut=    40.42 Ry     beta= 0.00
     Davidson diagonalization with overlap
     ethr =  3.42E-03,  avg # of iterations =  1.0

     total cpu time spent up to now is     1597.4 secs

     total energy              =   -1410.68953238 Ry
     estimated scf accuracy    <       1.47642719 Ry

     iteration # 99     ecut=    40.42 Ry     beta= 0.00
     Davidson diagonalization with overlap
     ethr =  3.42E-03,  avg # of iterations =  1.0

     total cpu time spent up to now is     1613.1 secs

     total energy              =   -1410.68953238 Ry
     estimated scf accuracy    <       1.47642719 Ry

     iteration #100     ecut=    40.42 Ry     beta= 0.00
     Davidson diagonalization with overlap
     ethr =  3.42E-03,  avg # of iterations =  1.0

     total cpu time spent up to now is     1629.8 secs

     total energy              =   -1410.68953238 Ry
     estimated scf accuracy    <       1.47642719 Ry

     End of self-consistent calculation

     convergence NOT achieved after 100 iterations: stopping

     Writing config to output data dir ./out/MnNiSb.save/
 
     init_run     :      8.02s CPU      8.29s WALL (       1 calls)
     electrons    :   1592.66s CPU   1621.28s WALL (       1 calls)

     Called by init_run:
     wfcinit      :      6.39s CPU      6.50s WALL (       1 calls)
     potinit      :      0.71s CPU      0.72s WALL (       1 calls)
     hinit0       :      0.76s CPU      0.77s WALL (       1 calls)

     Called by electrons:
     c_bands      :   1252.11s CPU   1258.79s WALL (     100 calls)
     sum_band     :    282.61s CPU    293.49s WALL (     100 calls)
     v_of_rho     :      1.99s CPU      2.01s WALL (     101 calls)
     newd         :      8.72s CPU     19.57s WALL (     101 calls)
     PAW_pot      :     47.28s CPU     47.35s WALL (     101 calls)
     mix_rho      :      0.50s CPU      0.54s WALL (     100 calls)

     Called by c_bands:
     init_us_2    :     22.31s CPU     22.77s WALL (   29346 calls)
     init_us_2:cp :     22.24s CPU     22.72s WALL (   29346 calls)
     cegterg      :   1104.25s CPU   1108.71s WALL (   14600 calls)

     Called by *egterg:
     cdiaghg      :     15.13s CPU     15.20s WALL (   29361 calls)
     h_psi        :   1000.95s CPU   1005.13s WALL (   29507 calls)
     s_psi        :     26.25s CPU     26.36s WALL (   29507 calls)
     g_psi        :      5.22s CPU      5.24s WALL (   14761 calls)

     Called by h_psi:
     h_psi:calbec :     28.44s CPU     28.58s WALL (   29507 calls)
     vloc_psi     :    943.55s CPU    947.48s WALL (   29507 calls)
     add_vuspsi   :     26.37s CPU     26.47s WALL (   29507 calls)

     General routines
     calbec       :     42.31s CPU     42.51s WALL (   44107 calls)
     fft          :      0.63s CPU      0.64s WALL (    1313 calls)
     ffts         :      0.07s CPU      0.07s WALL (     201 calls)
     fftw         :   1050.96s CPU   1055.59s WALL ( 1910094 calls)
     interpolate  :      0.11s CPU      0.11s WALL (     101 calls)
     davcio       :      0.02s CPU      0.08s WALL (     164 calls)
 
     Parallel routines
 
     PWSCF        :  26m41.04s CPU  27m10.19s WALL

 
   This run was terminated on:  21:32:35   9Jun2023            

=------------------------------------------------------------------------------=
   JOB DONE.
=------------------------------------------------------------------------------=
