
     Program PWSCF v.7.2 starts on  9Jun2023 at 13: 9:17 

     This program is part of the open-source Quantum ESPRESSO suite
     for quantum simulation of materials; please cite
         "P. Giannozzi et al., J. Phys.:Condens. Matter 21 395502 (2009);
         "P. Giannozzi et al., J. Phys.:Condens. Matter 29 465901 (2017);
         "P. Giannozzi et al., J. Chem. Phys. 152 154105 (2020);
          URL http://www.quantum-espresso.org", 
     in publications or presentations arising from this work. More details at
     http://www.quantum-espresso.org/quote

     Parallel version (MPI), running on     1 processors

     MPI processes distributed on     1 nodes
     9052 MiB available memory on the printing compute node when the environment starts
 
     Waiting for input...
     Reading input from standard input
Warning: card &CELL ignored
Warning: card / ignored

     Current dimensions of program PWSCF are:
     Max number of different atomic species (ntypx) = 10
     Max number of k-points (npk) =  40000
     Max angular momentum in pseudopotentials (lmaxx) =  4
     file Mn.pbe-spn-kjpaw_psl.0.3.1.UPF: wavefunction(s)  3P 3D renormalized
     file Sb.pbe-n-kjpaw_psl.1.0.0.UPF: wavefunction(s)  5S renormalized
     Message from routine setup:
     using ibrav=0 with symmetry is DISCOURAGED, use correct ibrav instead
 
     Subspace diagonalization in iterative solution of the eigenvalue problem:
     a serial algorithm will be used

 
     G-vector sticks info
     --------------------
     sticks:   dense  smooth     PW     G-vecs:    dense   smooth      PW
     Sum         661     517    163                19075    13539    2283
 
     Using Slab Decomposition
 


     bravais-lattice index     =            0
     lattice parameter (alat)  =       6.8896  a.u.
     unit-cell volume          =     391.9049 (a.u.)^3
     number of atoms/cell      =            4
     number of atomic types    =            2
     number of electrons       =        40.00
     number of Kohn-Sham states=           24
     kinetic-energy cutoff     =      40.4242  Ry
     charge density cutoff     =     202.1211  Ry
     scf convergence threshold =      1.0E-06
     mixing beta               =       0.7000
     number of iterations used =            8  plain     mixing
     energy convergence thresh.=      1.0E-04
     force convergence thresh. =      1.0E-03
     Exchange-correlation= SLA  PW   PBX  PBC
                           (   1   4   3   4   0   0   0)
     nstep                     =           50


     celldm(1)=   6.889571  celldm(2)=   0.000000  celldm(3)=   0.000000
     celldm(4)=   0.000000  celldm(5)=   0.000000  celldm(6)=   0.000000

     crystal axes: (cart. coord. in units of alat)
               a(1) = (   1.000000   0.000000   0.000000 )  
               a(2) = (  -0.500000   0.866025   0.000000 )  
               a(3) = (   0.000000   0.000000   1.383801 )  

     reciprocal axes: (cart. coord. in units 2 pi/alat)
               b(1) = (  1.000000  0.577350  0.000000 )  
               b(2) = (  0.000000  1.154701  0.000000 )  
               b(3) = (  0.000000  0.000000  0.722647 )  


     PseudoPot. # 1 for Mn read from file:
     ./pseudos/Mn.pbe-spn-kjpaw_psl.0.3.1.UPF
     MD5 check sum: ba19e6d7ccbc12830efad05ba8577d9c
     Pseudo is Projector augmented-wave + core cor, Zval = 15.0
     Generated using &quot;atomic&quot; code by A. Dal Corso  v.6.2.2
     Shape of augmentation charge: PSQ
     Using radial grid of 1187 points,  6 beta functions with: 
                l(1) =   0
                l(2) =   0
                l(3) =   1
                l(4) =   1
                l(5) =   2
                l(6) =   2
     Q(r) pseudized with 0 coefficients 


     PseudoPot. # 2 for Sb read from file:
     ./pseudos/Sb.pbe-n-kjpaw_psl.1.0.0.UPF
     MD5 check sum: 6b903ae7923846f66e229fa892705b98
     Pseudo is Projector augmented-wave + core cor, Zval =  5.0
     Generated using &quot;atomic&quot; code by A. Dal Corso  v.6.2.2
     Shape of augmentation charge: PSQ
     Using radial grid of 1243 points,  6 beta functions with: 
                l(1) =   0
                l(2) =   0
                l(3) =   1
                l(4) =   1
                l(5) =   2
                l(6) =   2
     Q(r) pseudized with 0 coefficients 


     atomic species   valence    mass     pseudopotential
        Mn            15.00    54.93804     Mn( 1.00)
        Sb             5.00   121.76000     Sb( 1.00)

     24 Sym. Ops., with inversion, found (12 have fractional translation)



   Cartesian axes

     site n.     atom                  positions (alat units)
         1           Mn  tau(   1) = (   0.0000000   0.0000000   0.0000000  )
         2           Mn  tau(   2) = (   0.0000000   0.0000000   0.6919003  )
         3           Sb  tau(   3) = (  -0.0000000   0.5773503   0.3459502  )
         4           Sb  tau(   4) = (   0.5000000   0.2886751   1.0378505  )

     number of k points=    50  Gaussian smearing, width (Ry)=  0.0147
                       cart. coord. in units 2pi/alat
        k(    1) = (   0.0000000   0.0000000   0.0000000), wk =   0.0039062
        k(    2) = (   0.0000000   0.0000000   0.0903309), wk =   0.0078125
        k(    3) = (   0.0000000   0.0000000   0.1806619), wk =   0.0078125
        k(    4) = (   0.0000000   0.0000000   0.2709928), wk =   0.0078125
        k(    5) = (   0.0000000   0.0000000  -0.3613237), wk =   0.0039062
        k(    6) = (   0.0000000   0.1443376   0.0000000), wk =   0.0234375
        k(    7) = (   0.0000000   0.1443376   0.0903309), wk =   0.0468750
        k(    8) = (   0.0000000   0.1443376   0.1806619), wk =   0.0468750
        k(    9) = (   0.0000000   0.1443376   0.2709928), wk =   0.0468750
        k(   10) = (   0.0000000   0.1443376  -0.3613237), wk =   0.0234375
        k(   11) = (   0.0000000   0.2886751   0.0000000), wk =   0.0234375
        k(   12) = (   0.0000000   0.2886751   0.0903309), wk =   0.0468750
        k(   13) = (   0.0000000   0.2886751   0.1806619), wk =   0.0468750
        k(   14) = (   0.0000000   0.2886751   0.2709928), wk =   0.0468750
        k(   15) = (   0.0000000   0.2886751  -0.3613237), wk =   0.0234375
        k(   16) = (   0.0000000   0.4330127   0.0000000), wk =   0.0234375
        k(   17) = (   0.0000000   0.4330127   0.0903309), wk =   0.0468750
        k(   18) = (   0.0000000   0.4330127   0.1806619), wk =   0.0468750
        k(   19) = (   0.0000000   0.4330127   0.2709928), wk =   0.0468750
        k(   20) = (   0.0000000   0.4330127  -0.3613237), wk =   0.0234375
        k(   21) = (   0.0000000  -0.5773503   0.0000000), wk =   0.0117188
        k(   22) = (   0.0000000  -0.5773503   0.0903309), wk =   0.0234375
        k(   23) = (   0.0000000  -0.5773503   0.1806619), wk =   0.0234375
        k(   24) = (   0.0000000  -0.5773503   0.2709928), wk =   0.0234375
        k(   25) = (   0.0000000  -0.5773503  -0.3613237), wk =   0.0117188
        k(   26) = (   0.1250000   0.2165064   0.0000000), wk =   0.0234375
        k(   27) = (   0.1250000   0.2165064   0.0903309), wk =   0.0468750
        k(   28) = (   0.1250000   0.2165064   0.1806619), wk =   0.0468750
        k(   29) = (   0.1250000   0.2165064   0.2709928), wk =   0.0468750
        k(   30) = (   0.1250000   0.2165064  -0.3613237), wk =   0.0234375
        k(   31) = (   0.1250000   0.3608439   0.0000000), wk =   0.0468750
        k(   32) = (   0.1250000   0.3608439   0.0903309), wk =   0.0937500
        k(   33) = (   0.1250000   0.3608439   0.1806619), wk =   0.0937500
        k(   34) = (   0.1250000   0.3608439   0.2709928), wk =   0.0937500
        k(   35) = (   0.1250000   0.3608439  -0.3613237), wk =   0.0468750
        k(   36) = (   0.1250000   0.5051815   0.0000000), wk =   0.0468750
        k(   37) = (   0.1250000   0.5051815   0.0903309), wk =   0.0937500
        k(   38) = (   0.1250000   0.5051815   0.1806619), wk =   0.0937500
        k(   39) = (   0.1250000   0.5051815   0.2709928), wk =   0.0937500
        k(   40) = (   0.1250000   0.5051815  -0.3613237), wk =   0.0468750
        k(   41) = (   0.2500000   0.4330127   0.0000000), wk =   0.0234375
        k(   42) = (   0.2500000   0.4330127   0.0903309), wk =   0.0468750
        k(   43) = (   0.2500000   0.4330127   0.1806619), wk =   0.0468750
        k(   44) = (   0.2500000   0.4330127   0.2709928), wk =   0.0468750
        k(   45) = (   0.2500000   0.4330127  -0.3613237), wk =   0.0234375
        k(   46) = (   0.2500000   0.5773503   0.0000000), wk =   0.0234375
        k(   47) = (   0.2500000   0.5773503   0.0903309), wk =   0.0468750
        k(   48) = (   0.2500000   0.5773503   0.1806619), wk =   0.0468750
        k(   49) = (   0.2500000   0.5773503   0.2709928), wk =   0.0468750
        k(   50) = (   0.2500000   0.5773503  -0.3613237), wk =   0.0234375

     Dense  grid:    19075 G-vectors     FFT dimensions: (  32,  32,  48)

     Smooth grid:    13539 G-vectors     FFT dimensions: (  27,  27,  40)

     Estimated max dynamical RAM per process >     103.22 MB

     Check: negative core charge=   -0.000064

     Initial potential from superposition of free atoms

     starting charge      39.9977, renormalised to      40.0000
     Starting wfcs are   28 randomized atomic wfcs
     Checking if some PAW data can be deallocated... 

     total cpu time spent up to now is        3.1 secs

     Self-consistent Calculation

     iteration #  1     ecut=    40.42 Ry     beta= 0.70
     Davidson diagonalization with overlap
     ethr =  1.00E-02,  avg # of iterations =  2.2

     total cpu time spent up to now is        7.9 secs

     total energy              =   -1267.49626790 Ry
     estimated scf accuracy    <       0.96820870 Ry

     iteration #  2     ecut=    40.42 Ry     beta= 0.70
     Davidson diagonalization with overlap
     ethr =  2.42E-03,  avg # of iterations =  6.2

     total cpu time spent up to now is       14.7 secs

     total energy              =   -1267.13884149 Ry
     estimated scf accuracy    <       9.46952561 Ry

     iteration #  3     ecut=    40.42 Ry     beta= 0.70
     Davidson diagonalization with overlap
     ethr =  2.42E-03,  avg # of iterations =  5.8

     total cpu time spent up to now is       21.1 secs

     total energy              =   -1268.16704970 Ry
     estimated scf accuracy    <       0.05208250 Ry

     iteration #  4     ecut=    40.42 Ry     beta= 0.70
     Davidson diagonalization with overlap
     ethr =  1.30E-04,  avg # of iterations =  5.6

     total cpu time spent up to now is       27.2 secs

     total energy              =   -1268.19007669 Ry
     estimated scf accuracy    <       0.01694294 Ry

     iteration #  5     ecut=    40.42 Ry     beta= 0.70
     Davidson diagonalization with overlap
     ethr =  4.24E-05,  avg # of iterations =  1.9

     total cpu time spent up to now is       31.5 secs

     total energy              =   -1268.19036415 Ry
     estimated scf accuracy    <       0.00358879 Ry

     iteration #  6     ecut=    40.42 Ry     beta= 0.70
     Davidson diagonalization with overlap
     ethr =  8.97E-06,  avg # of iterations =  5.1

     total cpu time spent up to now is       36.9 secs

     total energy              =   -1268.19163429 Ry
     estimated scf accuracy    <       0.00076206 Ry

     iteration #  7     ecut=    40.42 Ry     beta= 0.70
     Davidson diagonalization with overlap
     ethr =  1.91E-06,  avg # of iterations =  2.9

     total cpu time spent up to now is       41.2 secs

     total energy              =   -1268.19174723 Ry
     estimated scf accuracy    <       0.00003966 Ry

     iteration #  8     ecut=    40.42 Ry     beta= 0.70
     Davidson diagonalization with overlap
     ethr =  9.92E-08,  avg # of iterations =  5.4

     total cpu time spent up to now is       47.4 secs

     total energy              =   -1268.19177403 Ry
     estimated scf accuracy    <       0.00000736 Ry

     iteration #  9     ecut=    40.42 Ry     beta= 0.70
     Davidson diagonalization with overlap
     ethr =  1.84E-08,  avg # of iterations =  4.0

     total cpu time spent up to now is       52.3 secs

     total energy              =   -1268.19177598 Ry
     estimated scf accuracy    <       0.00000185 Ry

     iteration # 10     ecut=    40.42 Ry     beta= 0.70
     Davidson diagonalization with overlap
     ethr =  4.63E-09,  avg # of iterations =  3.3

     total cpu time spent up to now is       56.8 secs

     End of self-consistent calculation

          k = 0.0000 0.0000 0.0000 (  1669 PWs)   bands (ev):

   -63.1697 -63.1243 -32.3688 -32.0005 -31.9150 -31.9150 -31.8731 -31.8731
     1.6764   6.8587   8.5124  11.6432  11.6432  12.7918  13.7215  13.7215
    14.6398  14.6398  15.9345  15.9345  17.5930  17.5930  18.0469  19.8517

          k = 0.0000 0.0000 0.0903 (  1669 PWs)   bands (ev):

   -63.1680 -63.1260 -32.3549 -32.0149 -31.9134 -31.9134 -31.8746 -31.8746
     1.7741   6.1297   9.3420  11.7200  11.7200  12.8530  13.7784  13.7784
    14.4527  14.4527  15.7094  15.7094  17.8672  17.9560  17.9560  20.0328

          k = 0.0000 0.0000 0.1807 (  1657 PWs)   bands (ev):

   -63.1630 -63.1309 -32.3154 -32.0553 -31.9088 -31.9088 -31.8792 -31.8792
     2.0660   5.0464  10.6904  11.9474  11.9474  13.0014  13.9452  13.9452
    13.9722  13.9722  15.3191  15.3191  17.4838  18.6932  18.6932  19.2339

          k = 0.0000 0.0000 0.2710 (  1700 PWs)   bands (ev):

   -63.1557 -63.1384 -32.2566 -32.1156 -31.9021 -31.9021 -31.8861 -31.8861
     2.5482   4.0538  11.9732  12.3146  12.3146  13.0986  13.3777  13.3777
    14.2062  14.2062  14.9224  14.9224  17.1884  18.1431  19.4873  19.4873

          k = 0.0000 0.0000-0.3613 (  1700 PWs)   bands (ev):

   -63.1471 -63.1471 -32.1864 -32.1864 -31.8941 -31.8941 -31.8941 -31.8941
     3.2143   3.2143  12.8030  12.8030  12.8030  12.8030  12.8418  12.8418
    14.5422  14.5422  14.5422  14.5422  17.3491  17.3491  20.1864  20.1864

          k = 0.0000 0.1443 0.0000 (  1690 PWs)   bands (ev):

   -63.1695 -63.1240 -32.3679 -32.0001 -31.9183 -31.9160 -31.8753 -31.8731
     1.9221   6.8320   8.7879  11.4938  11.7156  12.7056  13.4236  13.5389
    14.3227  14.7316  15.8875  15.9360  16.6575  17.1844  17.9248  19.5404

          k = 0.0000 0.1443 0.0903 (  1689 PWs)   bands (ev):

   -63.1677 -63.1257 -32.3541 -32.0143 -31.9167 -31.9144 -31.8770 -31.8747
     2.0185   6.2159   9.4458  11.6163  11.7878  12.7745  13.4081  13.5608
    14.1806  14.5950  15.6285  15.6958  17.0304  17.5371  17.7973  19.5318

          k = 0.0000 0.1443 0.1807 (  1683 PWs)   bands (ev):

   -63.1628 -63.1307 -32.3148 -32.0548 -31.9120 -31.9098 -31.8816 -31.8794
     2.3061   5.2067  10.5012  12.0003  12.0133  12.9514  13.1933  13.5421
    14.0382  14.3350  15.2408  15.3073  17.4333  17.7666  18.2126  19.2002

          k = 0.0000 0.1443 0.2710 (  1686 PWs)   bands (ev):

   -63.1554 -63.1381 -32.2558 -32.1150 -31.9050 -31.9028 -31.8886 -31.8864
     2.7804   4.2515  11.3604  12.3394  12.6340  12.6754  13.1447  13.2426
    14.1801  14.3365  14.8488  14.9313  17.3197  18.3940  18.4208  18.9386

          k = 0.0000 0.1443-0.3613 (  1692 PWs)   bands (ev):

   -63.1468 -63.1468 -32.1857 -32.1857 -31.8968 -31.8968 -31.8946 -31.8946
     3.4334   3.4334  12.0361  12.0361  12.7765  12.7765  13.1156  13.1156
    14.4765  14.4765  14.5880  14.5880  17.6336  17.6336  19.0478  19.0478

          k = 0.0000 0.2887 0.0000 (  1702 PWs)   bands (ev):

   -63.1689 -63.1232 -32.3658 -31.9988 -31.9262 -31.9187 -31.8806 -31.8731
     2.6399   6.6922   9.5791  10.8209  11.8841  12.2967  13.0395  13.2080
    13.6346  14.9688  15.5338  15.7981  15.9436  16.2564  17.4238  18.9224

          k = 0.0000 0.2887 0.0903 (  1701 PWs)   bands (ev):

   -63.1671 -63.1250 -32.3521 -32.0130 -31.9245 -31.9170 -31.8824 -31.8748
     2.7314   6.3484   9.6819  11.1465  11.9427  12.3135  12.9381  13.2053
    13.7036  14.8773  15.3485  15.6180  16.0139  16.6894  17.3516  18.7168

          k = 0.0000 0.2887 0.1807 (  1695 PWs)   bands (ev):

   -63.1622 -63.1299 -32.3128 -32.0534 -31.9195 -31.9120 -31.8873 -31.8798
     3.0037   5.6035   9.9351  11.5848  12.1129  12.4168  12.9474  13.1573
    13.8434  14.6968  15.0527  15.2824  16.3467  17.2176  17.3094  18.3987

          k = 0.0000 0.2887 0.2710 (  1694 PWs)   bands (ev):

   -63.1548 -63.1373 -32.2539 -32.1135 -31.9121 -31.9047 -31.8947 -31.8872
     3.4494   4.7914  10.3080  11.2859  12.3753  12.9104  12.9827  13.1898
    14.0257  14.6335  14.7120  14.9956  16.6466  17.1243  17.9805  18.3564

          k = 0.0000 0.2887-0.3613 (  1694 PWs)   bands (ev):

   -63.1461 -63.1461 -32.1839 -32.1839 -31.9034 -31.9034 -31.8959 -31.8959
     4.0543   4.0543  10.7790  10.7790  12.6901  12.6901  13.2287  13.2287
    14.3395  14.3395  14.7577  14.7577  16.9242  16.9242  18.6984  18.6984

          k = 0.0000 0.4330 0.0000 (  1698 PWs)   bands (ev):

   -63.1683 -63.1225 -32.3637 -31.9976 -31.9340 -31.9213 -31.8860 -31.8730
     3.7518   6.2183   9.6403  10.7537  11.9814  12.1439  12.8289  12.9003
    13.1233  14.9644  15.2287  15.3371  15.7164  15.9610  16.3714  18.2969

          k = 0.0000 0.4330 0.0903 (  1707 PWs)   bands (ev):

   -63.1665 -63.1242 -32.3501 -32.0117 -31.9321 -31.9195 -31.8879 -31.8749
     3.8317   6.1399   9.3698  10.8189  12.0253  12.2366  12.6788  13.0931
    13.2870  14.9523  15.0802  15.3739  15.6960  16.1472  16.2965  18.3394

          k = 0.0000 0.4330 0.1807 (  1701 PWs)   bands (ev):

   -63.1616 -63.1292 -32.3109 -32.0520 -31.9269 -31.9143 -31.8931 -31.8802
     4.0666   5.8764   9.0817  10.5020  12.1525  12.4835  12.9913  13.0584
    13.6112  14.9007  14.9478  15.3055  15.6543  16.1245  16.5938  18.5142

          k = 0.0000 0.4330 0.2710 (  1708 PWs)   bands (ev):

   -63.1542 -63.1366 -32.2521 -32.1119 -31.9192 -31.9065 -31.9009 -31.8880
     4.4400   5.4336   9.1120   9.9470  12.3466  12.8106  12.8290  13.3777
    13.9191  14.7377  14.9379  15.1733  15.6568  15.9349  17.1940  18.8111

          k = 0.0000 0.4330-0.3613 (  1714 PWs)   bands (ev):

   -63.1454 -63.1454 -32.1823 -32.1823 -31.9100 -31.9100 -31.8973 -31.8973
     4.9178   4.9178   9.4369   9.4369  12.5798  12.5798  13.1875  13.1875
    14.3849  14.3849  15.0316  15.0316  15.7661  15.7661  17.9307  17.9307

          k = 0.0000-0.5774 0.0000 (  1686 PWs)   bands (ev):

   -63.1680 -63.1221 -32.3628 -31.9970 -31.9371 -31.9224 -31.8881 -31.8730
     4.8446   5.3771   9.1115  11.8832  11.9727  12.1091  12.2438  12.6490
    13.2299  14.7751  14.9027  15.3415  15.6112  15.7777  15.9757  18.1028

          k = 0.0000-0.5774 0.0903 (  1692 PWs)   bands (ev):

   -63.1663 -63.1239 -32.3492 -32.0111 -31.9353 -31.9205 -31.8900 -31.8749
     4.8964   5.4171   8.9572  11.0604  12.0125  12.1734  12.8909  12.9073
    13.1653  14.8067  14.9245  15.3661  15.5641  15.7290  16.0517  18.2698

          k = 0.0000-0.5774 0.1807 (  1712 PWs)   bands (ev):

   -63.1613 -63.1289 -32.3101 -32.0515 -31.9300 -31.9152 -31.8954 -31.8803
     5.0426   5.5044   8.6621  10.1041  12.1277  12.3930  12.9961  13.3581
    13.4284  14.8986  14.9863  15.3682  15.3916  15.5986  16.3376  18.7467

          k = 0.0000-0.5774 0.2710 (  1694 PWs)   bands (ev):

   -63.1539 -63.1363 -32.2513 -32.1112 -31.9220 -31.9072 -31.9033 -31.8884
     5.2502   5.5449   8.5206   9.2886  12.3064  12.7382  12.7702  13.3839
    14.0306  15.0422  15.0580  15.0808  15.2999  15.4177  16.8682  18.5333

          k = 0.0000-0.5774-0.3613 (  1704 PWs)   bands (ev):

   -63.1451 -63.1451 -32.1816 -32.1816 -31.9127 -31.9127 -31.8978 -31.8978
     5.4500   5.4500   8.7269   8.7269  12.5291  12.5291  13.1160  13.1160
    14.5887  14.5887  15.1927  15.1927  15.2221  15.2221  17.6078  17.6078

          k = 0.1250 0.2165 0.0000 (  1695 PWs)   bands (ev):

   -63.1690 -63.1235 -32.3664 -31.9991 -31.9235 -31.9182 -31.8788 -31.8735
     2.4042   6.7555   9.3214  11.2212  11.7389  12.3031  13.1243  13.2986
    13.8244  14.9082  15.6885  15.8295  15.9345  16.5716  17.6520  19.8954

          k = 0.1250 0.2165 0.0903 (  1701 PWs)   bands (ev):

   -63.1673 -63.1252 -32.3527 -32.0134 -31.9219 -31.9166 -31.8805 -31.8751
     2.4974   6.3290   9.6383  11.4685  11.8010  12.3218  13.1292  13.1714
    13.8672  14.8087  15.4348  15.6558  16.1636  16.8895  17.5970  19.4643

          k = 0.1250 0.2165 0.1807 (  1699 PWs)   bands (ev):

   -63.1624 -63.1301 -32.3134 -32.0538 -31.9170 -31.9117 -31.8853 -31.8800
     2.7752   5.4880  10.1652  11.9600  12.1279  12.2362  13.0173  13.1126
    14.0162  14.5788  15.1271  15.2789  16.6495  17.2074  17.6654  18.8680

          k = 0.1250 0.2165 0.2710 (  1691 PWs)   bands (ev):

   -63.1550 -63.1376 -32.2544 -32.1139 -31.9097 -31.9044 -31.8926 -31.8873
     3.2314   4.6217  10.6731  11.7356  12.3059  12.7490  13.0626  13.1271
    14.2548  14.4127  14.8112  14.9407  17.1690  17.2945  18.0018  18.3186

          k = 0.1250 0.2165-0.3613 (  1698 PWs)   bands (ev):

   -63.1463 -63.1463 -32.1845 -32.1845 -31.9012 -31.9012 -31.8959 -31.8959
     3.8541   3.8541  11.2014  11.2014  12.6143  12.6143  13.2247  13.2247
    14.4355  14.4355  14.6636  14.6636  17.5167  17.5167  17.9342  17.9343

          k = 0.1250 0.3608 0.0000 (  1709 PWs)   bands (ev):

   -63.1684 -63.1227 -32.3643 -31.9980 -31.9307 -31.9216 -31.8834 -31.8741
     3.3223   6.5027  10.3071  10.3729  11.5204  11.6870  12.9864  13.1605
    13.3370  15.0346  15.1957  15.7612  15.8422  15.9336  16.9403  18.8692

          k = 0.1250 0.3608 0.0903 (  1699 PWs)   bands (ev):

   -63.1667 -63.1245 -32.3506 -32.0121 -31.9288 -31.9197 -31.8852 -31.8759
     3.4076   6.3291   9.7990  10.9069  11.6445  11.7439  12.8693  13.1413
    13.5527  15.0348  15.1021  15.5268  15.7659  16.3045  16.8641  18.5773

          k = 0.1250 0.3608 0.1807 (  1705 PWs)   bands (ev):

   -63.1617 -63.1294 -32.3115 -32.0524 -31.9237 -31.9146 -31.8904 -31.8811
     3.6600   5.8574   9.5997  10.8942  11.7592  12.2587  12.8458  13.1787
    13.8491  14.8556  15.0016  15.2932  15.8055  16.5790  16.8019  18.2949

          k = 0.1250 0.3608 0.2710 (  1709 PWs)   bands (ev):

   -63.1544 -63.1369 -32.2526 -32.1124 -31.9161 -31.9070 -31.8980 -31.8888
     4.0678   5.2340   9.7235  10.5007  12.0194  12.4551  13.0531  13.2891
    14.1237  14.6120  14.9291  15.1019  15.9417  16.3955  17.1190  17.9496

          k = 0.1250 0.3608-0.3613 (  1708 PWs)   bands (ev):

   -63.1456 -63.1456 -32.1827 -32.1827 -31.9071 -31.9071 -31.8979 -31.8979
     4.6077   4.6077  10.0605  10.0605  12.2981  12.2981  13.2578  13.2578
    14.3901  14.3901  14.9482  14.9482  16.1568  16.1568  17.5077  17.5077

          k = 0.1250 0.5052 0.0000 (  1706 PWs)   bands (ev):

   -63.1680 -63.1222 -32.3629 -31.9970 -31.9356 -31.9239 -31.8866 -31.8747
     4.5227   5.8390   9.3274  11.3411  11.5103  11.5863  12.4861  12.9561
    13.5074  14.8676  15.2032  15.4528  15.7042  15.9314  15.9475  18.3142

          k = 0.1250 0.5052 0.0903 (  1708 PWs)   bands (ev):

   -63.1663 -63.1239 -32.3492 -32.0112 -31.9338 -31.9221 -31.8885 -31.8765
     4.5881   5.8386   9.1871  10.8361  11.5090  11.9739  12.5060  13.1485
    13.5704  14.8888  15.0850  15.4863  15.6581  15.8745  16.0474  18.4117

          k = 0.1250 0.5052 0.1807 (  1705 PWs)   bands (ev):

   -63.1613 -63.1289 -32.3101 -32.0514 -31.9285 -31.9168 -31.8938 -31.8819
     4.7764   5.8028   8.9283  10.1782  11.5698  12.1777  12.8133  13.3239
    13.7744  14.9113  14.9627  15.4486  15.5248  15.7213  16.3141  18.2640

          k = 0.1250 0.5052 0.2710 (  1698 PWs)   bands (ev):

   -63.1539 -63.1363 -32.2513 -32.1113 -31.9205 -31.9089 -31.9017 -31.8899
     5.0600   5.6567   8.8384   9.5394  11.7926  12.1871  13.0652  13.3226
    14.1124  14.7770  15.0536  15.3211  15.3880  15.5255  16.6818  17.6764

          k = 0.1250 0.5052-0.3613 (  1702 PWs)   bands (ev):

   -63.1451 -63.1451 -32.1815 -32.1815 -31.9112 -31.9112 -31.8993 -31.8993
     5.3832   5.3832   9.0557   9.0557  12.0463  12.0463  13.2054  13.2054
    14.5038  14.5038  15.1834  15.1834  15.3793  15.3793  17.1355  17.1355

          k = 0.2500 0.4330 0.0000 (  1707 PWs)   bands (ev):

   -63.1680 -63.1222 -32.3629 -31.9970 -31.9334 -31.9261 -31.8845 -31.8769
     4.3460   6.1671   9.8596  10.4242  11.1419  11.3263  12.6680  13.3621
    13.5638  14.8758  15.4606  15.4907  15.7613  15.9090  16.3822  18.2230

          k = 0.2500 0.4330 0.0903 (  1711 PWs)   bands (ev):

   -63.1663 -63.1239 -32.3492 -32.0111 -31.9316 -31.9242 -31.8864 -31.8788
     4.4164   6.1263   9.9075  10.0301  11.0212  11.7302  12.7401  13.3048
    13.6543  14.8966  15.2231  15.5408  15.7156  16.0426  16.2880  17.8218

          k = 0.2500 0.4330 0.1807 (  1713 PWs)   bands (ev):

   -63.1613 -63.1289 -32.3102 -32.0514 -31.9263 -31.9189 -31.8917 -31.8841
     4.6209   5.9800   9.5682   9.9433  10.8702  12.1215  12.9061  13.2084
    13.8896  14.9274  14.9557  15.4721  15.6070  16.0016  16.3109  17.4042

          k = 0.2500 0.4330 0.2710 (  1703 PWs)   bands (ev):

   -63.1539 -63.1364 -32.2513 -32.1112 -31.9184 -31.9110 -31.8995 -31.8921
     4.9376   5.6988   9.3821   9.7463  11.0615  11.9726  13.0983  13.2479
    14.1889  14.6729  15.0452  15.3392  15.5101  15.7156  16.5443  17.0768

          k = 0.2500 0.4330-0.3613 (  1692 PWs)   bands (ev):

   -63.1451 -63.1451 -32.1815 -32.1815 -31.9092 -31.9092 -31.9013 -31.9013
     5.3218   5.3218   9.4818   9.4818  11.5100  11.5100  13.2417  13.2417
    14.4566  14.4566  15.1739  15.1739  15.5286  15.5286  16.7971  16.7971

          k = 0.2500 0.5774 0.0000 (  1719 PWs)   bands (ev):

   -63.1678 -63.1220 -32.3624 -31.9966 -31.9339 -31.9287 -31.8842 -31.8788
     5.2521   5.6598   9.1551  10.5196  10.7405  12.1469  12.2332  13.5989
    13.6496  14.9932  15.1639  15.5087  15.7838  15.8641  16.2073  17.5588

          k = 0.2500 0.5774 0.0903 (  1712 PWs)   bands (ev):

   -63.1661 -63.1237 -32.3486 -32.0108 -31.9320 -31.9268 -31.8860 -31.8807
     5.2947   5.6843   9.1999  10.3541  10.5000  12.3538  12.3696  13.3841
    13.7209  14.9748  15.0946  15.4970  15.7577  15.9162  16.1583  17.3642

          k = 0.2500 0.5774 0.1807 (  1705 PWs)   bands (ev):

   -63.1611 -63.1287 -32.3096 -32.0510 -31.9267 -31.9214 -31.8913 -31.8861
     5.4118   5.7371   9.2365  10.0097  10.2233  12.3494  12.7787  13.0617
    13.9268  14.9151  14.9413  15.3685  15.7167  16.0402  16.0537  17.0245

          k = 0.2500 0.5774 0.2710 (  1694 PWs)   bands (ev):

   -63.1537 -63.1361 -32.2507 -32.1108 -31.9186 -31.9134 -31.8993 -31.8942
     5.5686   5.7627   9.1752   9.5389  10.5036  11.7720  13.1023  13.1342
    14.2382  14.7893  14.8115  15.0973  15.7238  15.9153  16.2334  16.7175

          k = 0.2500 0.5774-0.3613 (  1688 PWs)   bands (ev):

   -63.1449 -63.1449 -32.1810 -32.1810 -31.9094 -31.9094 -31.9034 -31.9034
     5.7054   5.7054   9.2393   9.2393  11.0767  11.0767  13.2175  13.2175
    14.5741  14.5741  14.8376  14.8376  15.7987  15.7987  16.4564  16.4564

     the Fermi energy is    15.5485 ev

!    total energy              =   -1268.19177638 Ry
     total all-electron energy =    -30560.801236 Ry
     estimated scf accuracy    <       0.00000002 Ry
     smearing contrib. (-TS)   =      -0.00803146 Ry
     internal energy E=F+TS    =   -1268.18374492 Ry

     The total energy is F=E-TS. E is the sum of the following terms:
     one-electron contribution =    -253.08851845 Ry
     hartree contribution      =     155.06562325 Ry
     xc contribution           =     -81.21893382 Ry
     ewald contribution        =    -276.74284603 Ry
     one-center paw contrib.   =    -812.19906986 Ry

     convergence has been achieved in  10 iterations

     Forces acting on atoms (cartesian axes, Ry/au):

     atom    1 type  1   force =     0.00000000   -0.00000000    0.00000000
     atom    2 type  1   force =     0.00000000    0.00000000    0.00000000
     atom    3 type  2   force =    -0.00000000   -0.00000000    0.00000000
     atom    4 type  2   force =     0.00000000    0.00000000    0.00000000
     The non-local contrib.  to forces
     atom    1 type  1   force =     0.00000000    0.00000000    0.00000000
     atom    2 type  1   force =     0.00000000   -0.00000000    0.00000000
     atom    3 type  2   force =     0.00000000    0.00000000    0.00000000
     atom    4 type  2   force =     0.00000000   -0.00000000    0.00000000
     The ionic contribution  to forces
     atom    1 type  1   force =    -0.00000000   -0.00000000    0.00000000
     atom    2 type  1   force =    -0.00000000   -0.00000000   -0.00000000
     atom    3 type  2   force =     0.00000014   -0.00000008    0.00000000
     atom    4 type  2   force =    -0.00000014    0.00000008   -0.00000000
     The local contribution  to forces
     atom    1 type  1   force =    -0.00000000   -0.00000000    0.00000000
     atom    2 type  1   force =    -0.00000000   -0.00000000   -0.00000000
     atom    3 type  2   force =    -0.00000009    0.00000005    0.00000000
     atom    4 type  2   force =     0.00000009   -0.00000005    0.00000000
     The core correction contribution to forces
     atom    1 type  1   force =     0.00000000   -0.00000000    0.00000000
     atom    2 type  1   force =     0.00000000   -0.00000000   -0.00000000
     atom    3 type  2   force =    -0.00000001    0.00000000    0.00000000
     atom    4 type  2   force =     0.00000001   -0.00000000   -0.00000000
     The Hubbard contrib.    to forces
     atom    1 type  1   force =     0.00000000    0.00000000    0.00000000
     atom    2 type  1   force =     0.00000000    0.00000000    0.00000000
     atom    3 type  2   force =     0.00000000    0.00000000    0.00000000
     atom    4 type  2   force =     0.00000000    0.00000000    0.00000000
     The SCF correction term to forces
     atom    1 type  1   force =     0.00000000    0.00000000    0.00000000
     atom    2 type  1   force =     0.00000000   -0.00000000    0.00000000
     atom    3 type  2   force =     0.00000000   -0.00000000    0.00000000
     atom    4 type  2   force =    -0.00000000    0.00000000   -0.00000000

     Total force =     0.000000     Total SCF correction =     0.000000

     BFGS Geometry Optimization
     Energy error            =      0.0E+00 Ry
     Gradient error          =      1.4E-24 Ry/Bohr

     bfgs converged in   1 scf cycles and   0 bfgs steps
     (criteria: energy <  1.0E-04 Ry, force <  1.0E-03 Ry/Bohr)

     End of BFGS Geometry Optimization

     Final energy             =   -1268.1917763751 Ry
Begin final coordinates

ATOMIC_POSITIONS (angstrom)
Mn            0.0000000000        0.0000000000        0.0000000000
Mn            0.0000000000        0.0000000000        2.5225330000
Sb           -0.0000000182        2.1049059602        1.2612665000
Sb            1.8229020432        1.0524529643        3.7837995000
End final coordinates



     Writing all to output data dir ./out/MnNiSb.save/
 
     init_run     :      2.70s CPU      2.85s WALL (       1 calls)
     electrons    :     51.90s CPU     53.74s WALL (       1 calls)
     forces       :      0.34s CPU      0.41s WALL (       1 calls)

     Called by init_run:
     wfcinit      :      1.37s CPU      1.40s WALL (       1 calls)
     potinit      :      0.70s CPU      0.72s WALL (       1 calls)
     hinit0       :      0.54s CPU      0.56s WALL (       1 calls)

     Called by electrons:
     c_bands      :     40.24s CPU     40.56s WALL (      10 calls)
     sum_band     :      6.23s CPU      7.01s WALL (      10 calls)
     v_of_rho     :      0.17s CPU      0.17s WALL (      11 calls)
     newd         :      0.57s CPU      1.35s WALL (      11 calls)
     PAW_pot      :      5.40s CPU      5.42s WALL (      11 calls)
     mix_rho      :      0.03s CPU      0.03s WALL (      10 calls)

     Called by c_bands:
     init_us_2    :      0.55s CPU      0.57s WALL (    1100 calls)
     init_us_2:cp :      0.55s CPU      0.57s WALL (    1100 calls)
     cegterg      :     36.34s CPU     36.60s WALL (     500 calls)

     Called by *egterg:
     cdiaghg      :      1.34s CPU      1.35s WALL (    2620 calls)
     h_psi        :     31.22s CPU     31.46s WALL (    2670 calls)
     s_psi        :      1.15s CPU      1.17s WALL (    2670 calls)
     g_psi        :      0.25s CPU      0.25s WALL (    2120 calls)

     Called by h_psi:
     h_psi:calbec :      1.20s CPU      1.22s WALL (    2670 calls)
     vloc_psi     :     28.74s CPU     28.95s WALL (    2670 calls)
     add_vuspsi   :      1.16s CPU      1.17s WALL (    2670 calls)

     General routines
     calbec       :      1.68s CPU      1.70s WALL (    3370 calls)
     fft          :      0.05s CPU      0.07s WALL (     152 calls)
     ffts         :      0.01s CPU      0.01s WALL (      21 calls)
     fftw         :     29.23s CPU     29.46s WALL (   85530 calls)
     interpolate  :      0.01s CPU      0.01s WALL (      11 calls)
 
     Parallel routines
 
     PWSCF        :     55.17s CPU     57.38s WALL

 
   This run was terminated on:  13:10:14   9Jun2023            

=------------------------------------------------------------------------------=
   JOB DONE.
=------------------------------------------------------------------------------=
