
     Program PWSCF v.7.2 starts on  9Jun2023 at 13: 6:12 

     This program is part of the open-source Quantum ESPRESSO suite
     for quantum simulation of materials; please cite
         "P. Giannozzi et al., J. Phys.:Condens. Matter 21 395502 (2009);
         "P. Giannozzi et al., J. Phys.:Condens. Matter 29 465901 (2017);
         "P. Giannozzi et al., J. Chem. Phys. 152 154105 (2020);
          URL http://www.quantum-espresso.org", 
     in publications or presentations arising from this work. More details at
     http://www.quantum-espresso.org/quote

     Parallel version (MPI), running on     1 processors

     MPI processes distributed on     1 nodes
     9067 MiB available memory on the printing compute node when the environment starts
 
     Waiting for input...
     Reading input from standard input
Warning: card &CELL ignored
Warning: card / ignored

     Current dimensions of program PWSCF are:
     Max number of different atomic species (ntypx) = 10
     Max number of k-points (npk) =  40000
     Max angular momentum in pseudopotentials (lmaxx) =  4
     file Mn.pbe-spn-kjpaw_psl.0.3.1.UPF: wavefunction(s)  3P 3D renormalized
     file Sb.pbe-n-kjpaw_psl.1.0.0.UPF: wavefunction(s)  5S renormalized
     Message from routine setup:
     using ibrav=0 with symmetry is DISCOURAGED, use correct ibrav instead
 
     Subspace diagonalization in iterative solution of the eigenvalue problem:
     a serial algorithm will be used

 
     G-vector sticks info
     --------------------
     sticks:   dense  smooth     PW     G-vecs:    dense   smooth      PW
     Sum         661     517    127                19075    13539    1669
 
     Using Slab Decomposition
 


     bravais-lattice index     =            0
     lattice parameter (alat)  =       6.8896  a.u.
     unit-cell volume          =     391.9049 (a.u.)^3
     number of atoms/cell      =            4
     number of atomic types    =            2
     number of electrons       =        40.00
     number of Kohn-Sham states=           24
     kinetic-energy cutoff     =      40.4242  Ry
     charge density cutoff     =     202.1211  Ry
     scf convergence threshold =      1.0E-06
     mixing beta               =       0.7000
     number of iterations used =            8  plain     mixing
     energy convergence thresh.=      1.0E-04
     force convergence thresh. =      1.0E-03
     Exchange-correlation= SLA  PW   PBX  PBC
                           (   1   4   3   4   0   0   0)
     nstep                     =           50


     celldm(1)=   6.889571  celldm(2)=   0.000000  celldm(3)=   0.000000
     celldm(4)=   0.000000  celldm(5)=   0.000000  celldm(6)=   0.000000

     crystal axes: (cart. coord. in units of alat)
               a(1) = (   1.000000   0.000000   0.000000 )  
               a(2) = (  -0.500000   0.866025   0.000000 )  
               a(3) = (   0.000000   0.000000   1.383801 )  

     reciprocal axes: (cart. coord. in units 2 pi/alat)
               b(1) = (  1.000000  0.577350  0.000000 )  
               b(2) = (  0.000000  1.154701  0.000000 )  
               b(3) = (  0.000000  0.000000  0.722647 )  


     PseudoPot. # 1 for Mn read from file:
     ./pseudos/Mn.pbe-spn-kjpaw_psl.0.3.1.UPF
     MD5 check sum: ba19e6d7ccbc12830efad05ba8577d9c
     Pseudo is Projector augmented-wave + core cor, Zval = 15.0
     Generated using &quot;atomic&quot; code by A. Dal Corso  v.6.2.2
     Shape of augmentation charge: PSQ
     Using radial grid of 1187 points,  6 beta functions with: 
                l(1) =   0
                l(2) =   0
                l(3) =   1
                l(4) =   1
                l(5) =   2
                l(6) =   2
     Q(r) pseudized with 0 coefficients 


     PseudoPot. # 2 for Sb read from file:
     ./pseudos/Sb.pbe-n-kjpaw_psl.1.0.0.UPF
     MD5 check sum: 6b903ae7923846f66e229fa892705b98
     Pseudo is Projector augmented-wave + core cor, Zval =  5.0
     Generated using &quot;atomic&quot; code by A. Dal Corso  v.6.2.2
     Shape of augmentation charge: PSQ
     Using radial grid of 1243 points,  6 beta functions with: 
                l(1) =   0
                l(2) =   0
                l(3) =   1
                l(4) =   1
                l(5) =   2
                l(6) =   2
     Q(r) pseudized with 0 coefficients 


     atomic species   valence    mass     pseudopotential
        Mn            15.00    54.93804     Mn( 1.00)
        Sb             5.00   121.76000     Sb( 1.00)

     24 Sym. Ops., with inversion, found (12 have fractional translation)



   Cartesian axes

     site n.     atom                  positions (alat units)
         1           Mn  tau(   1) = (   0.0000000   0.0000000   0.0000000  )
         2           Mn  tau(   2) = (   0.0000000   0.0000000   0.6919003  )
         3           Sb  tau(   3) = (  -0.0000000   0.5773503   0.3459502  )
         4           Sb  tau(   4) = (   0.5000000   0.2886751   1.0378505  )

     number of k points=     1  Gaussian smearing, width (Ry)=  0.0147
                       cart. coord. in units 2pi/alat
        k(    1) = (   0.0000000   0.0000000   0.0000000), wk =   2.0000000

     Dense  grid:    19075 G-vectors     FFT dimensions: (  32,  32,  48)

     Smooth grid:    13539 G-vectors     FFT dimensions: (  27,  27,  40)

     Estimated max dynamical RAM per process >      72.08 MB

     Check: negative core charge=   -0.000064

     Initial potential from superposition of free atoms

     starting charge      39.9977, renormalised to      40.0000
     Starting wfcs are   28 randomized atomic wfcs
     Checking if some PAW data can be deallocated... 

     total cpu time spent up to now is        1.7 secs

     Self-consistent Calculation

     iteration #  1     ecut=    40.42 Ry     beta= 0.70
     Davidson diagonalization with overlap
     ethr =  1.00E-02,  avg # of iterations =  3.0

     total cpu time spent up to now is        2.6 secs

     total energy              =   -1264.31685625 Ry
     estimated scf accuracy    <       4.62021827 Ry

     iteration #  2     ecut=    40.42 Ry     beta= 0.70
     Davidson diagonalization with overlap
     ethr =  1.00E-02,  avg # of iterations = 10.0

     total cpu time spent up to now is        3.5 secs

     total energy              =   -1265.23411982 Ry
     estimated scf accuracy    <      34.37988047 Ry

     iteration #  3     ecut=    40.42 Ry     beta= 0.70
     Davidson diagonalization with overlap
     ethr =  1.00E-02,  avg # of iterations =  5.0

     total cpu time spent up to now is        4.3 secs

     total energy              =   -1267.39546724 Ry
     estimated scf accuracy    <       4.14810553 Ry

     iteration #  4     ecut=    40.42 Ry     beta= 0.70
     Davidson diagonalization with overlap
     ethr =  1.00E-02,  avg # of iterations =  2.0

     total cpu time spent up to now is        5.1 secs

     total energy              =   -1267.44294015 Ry
     estimated scf accuracy    <       2.73037295 Ry

     iteration #  5     ecut=    40.42 Ry     beta= 0.70
     Davidson diagonalization with overlap
     ethr =  6.83E-03,  avg # of iterations =  1.0

     total cpu time spent up to now is        5.9 secs

     total energy              =   -1267.12475092 Ry
     estimated scf accuracy    <       1.66388763 Ry

     iteration #  6     ecut=    40.42 Ry     beta= 0.70
     Davidson diagonalization with overlap
     ethr =  4.16E-03,  avg # of iterations =  2.0

     total cpu time spent up to now is        6.7 secs

     total energy              =   -1267.50273161 Ry
     estimated scf accuracy    <       0.09223706 Ry

     iteration #  7     ecut=    40.42 Ry     beta= 0.70
     Davidson diagonalization with overlap
     ethr =  2.31E-04,  avg # of iterations = 20.0

     total cpu time spent up to now is        7.6 secs

     total energy              =   -1267.85475604 Ry
     estimated scf accuracy    <       1.97622921 Ry

     iteration #  8     ecut=    40.42 Ry     beta= 0.70
     Davidson diagonalization with overlap
     ethr =  2.31E-04,  avg # of iterations =  2.0

     total cpu time spent up to now is        8.4 secs

     total energy              =   -1267.88529467 Ry
     estimated scf accuracy    <       2.32464558 Ry

     iteration #  9     ecut=    40.42 Ry     beta= 0.70
     Davidson diagonalization with overlap
     ethr =  2.31E-04,  avg # of iterations =  1.0

     total cpu time spent up to now is        9.2 secs

     total energy              =   -1267.67481688 Ry
     estimated scf accuracy    <       2.39245948 Ry

     iteration # 10     ecut=    40.42 Ry     beta= 0.70
     Davidson diagonalization with overlap
     ethr =  2.31E-04,  avg # of iterations =  2.0

     total cpu time spent up to now is       10.0 secs

     total energy              =   -1267.50334700 Ry
     estimated scf accuracy    <       1.68787351 Ry

     iteration # 11     ecut=    40.42 Ry     beta= 0.70
     Davidson diagonalization with overlap
     ethr =  2.31E-04,  avg # of iterations =  5.0

     total cpu time spent up to now is       10.8 secs

     total energy              =   -1267.42606842 Ry
     estimated scf accuracy    <       0.55395861 Ry

     iteration # 12     ecut=    40.42 Ry     beta= 0.70
     Davidson diagonalization with overlap
     ethr =  2.31E-04,  avg # of iterations =  3.0

     total cpu time spent up to now is       11.6 secs

     total energy              =   -1267.51069347 Ry
     estimated scf accuracy    <       1.36200811 Ry

     iteration # 13     ecut=    40.42 Ry     beta= 0.70
     Davidson diagonalization with overlap
     ethr =  2.31E-04,  avg # of iterations =  1.0

     total cpu time spent up to now is       12.3 secs

     total energy              =   -1267.53313172 Ry
     estimated scf accuracy    <       0.40167717 Ry

     iteration # 14     ecut=    40.42 Ry     beta= 0.70
     Davidson diagonalization with overlap
     ethr =  2.31E-04,  avg # of iterations =  1.0

     total cpu time spent up to now is       13.1 secs

     total energy              =   -1267.49413601 Ry
     estimated scf accuracy    <       0.67813860 Ry

     iteration # 15     ecut=    40.42 Ry     beta= 0.70
     Davidson diagonalization with overlap
     ethr =  2.31E-04,  avg # of iterations =  1.0

     total cpu time spent up to now is       13.9 secs

     total energy              =   -1267.51313453 Ry
     estimated scf accuracy    <       0.00240015 Ry

     iteration # 16     ecut=    40.42 Ry     beta= 0.70
     Davidson diagonalization with overlap
     ethr =  6.00E-06,  avg # of iterations =  3.0

     total cpu time spent up to now is       14.7 secs

     total energy              =   -1267.50887345 Ry
     estimated scf accuracy    <       0.18321295 Ry

     iteration # 17     ecut=    40.42 Ry     beta= 0.70
     Davidson diagonalization with overlap
     ethr =  6.00E-06,  avg # of iterations =  2.0

     total cpu time spent up to now is       15.5 secs

     total energy              =   -1267.51270689 Ry
     estimated scf accuracy    <       0.00527199 Ry

     iteration # 18     ecut=    40.42 Ry     beta= 0.70
     Davidson diagonalization with overlap
     ethr =  6.00E-06,  avg # of iterations =  1.0

     total cpu time spent up to now is       16.3 secs

     total energy              =   -1267.51205167 Ry
     estimated scf accuracy    <       0.01429873 Ry

     iteration # 19     ecut=    40.42 Ry     beta= 0.70
     Davidson diagonalization with overlap
     ethr =  6.00E-06,  avg # of iterations =  2.0

     total cpu time spent up to now is       17.1 secs

     total energy              =   -1267.51236203 Ry
     estimated scf accuracy    <       0.00015323 Ry

     iteration # 20     ecut=    40.42 Ry     beta= 0.70
     Davidson diagonalization with overlap
     ethr =  3.83E-07,  avg # of iterations =  6.0

     total cpu time spent up to now is       17.9 secs

     total energy              =   -1267.51243348 Ry
     estimated scf accuracy    <       0.00218686 Ry

     iteration # 21     ecut=    40.42 Ry     beta= 0.70
     Davidson diagonalization with overlap
     ethr =  3.83E-07,  avg # of iterations =  1.0

     total cpu time spent up to now is       18.8 secs

     total energy              =   -1267.51243175 Ry
     estimated scf accuracy    <       0.00063423 Ry

     iteration # 22     ecut=    40.42 Ry     beta= 0.70
     Davidson diagonalization with overlap
     ethr =  3.83E-07,  avg # of iterations =  1.0

     total cpu time spent up to now is       19.6 secs

     total energy              =   -1267.51243947 Ry
     estimated scf accuracy    <       0.00015693 Ry

     iteration # 23     ecut=    40.42 Ry     beta= 0.70
     Davidson diagonalization with overlap
     ethr =  3.83E-07,  avg # of iterations =  1.0

     total cpu time spent up to now is       20.4 secs

     total energy              =   -1267.51243895 Ry
     estimated scf accuracy    <       0.00019765 Ry

     iteration # 24     ecut=    40.42 Ry     beta= 0.70
     Davidson diagonalization with overlap
     ethr =  3.83E-07,  avg # of iterations =  1.0

     total cpu time spent up to now is       21.2 secs

     total energy              =   -1267.51243554 Ry
     estimated scf accuracy    <       0.00017864 Ry

     iteration # 25     ecut=    40.42 Ry     beta= 0.70
     Davidson diagonalization with overlap
     ethr =  3.83E-07,  avg # of iterations =  1.0

     total cpu time spent up to now is       22.0 secs

     total energy              =   -1267.51243607 Ry
     estimated scf accuracy    <       0.00013086 Ry

     iteration # 26     ecut=    40.42 Ry     beta= 0.70
     Davidson diagonalization with overlap
     ethr =  3.27E-07,  avg # of iterations =  1.0

     total cpu time spent up to now is       22.8 secs

     total energy              =   -1267.51243122 Ry
     estimated scf accuracy    <       0.00014102 Ry

     iteration # 27     ecut=    40.42 Ry     beta= 0.70
     Davidson diagonalization with overlap
     ethr =  3.27E-07,  avg # of iterations =  1.0

     total cpu time spent up to now is       23.7 secs

     total energy              =   -1267.51242146 Ry
     estimated scf accuracy    <       0.00010399 Ry

     iteration # 28     ecut=    40.42 Ry     beta= 0.70
     Davidson diagonalization with overlap
     ethr =  2.60E-07,  avg # of iterations =  1.0

     total cpu time spent up to now is       24.6 secs

     total energy              =   -1267.51242456 Ry
     estimated scf accuracy    <       0.00000176 Ry

     iteration # 29     ecut=    40.42 Ry     beta= 0.70
     Davidson diagonalization with overlap
     ethr =  4.40E-09,  avg # of iterations =  6.0

     total cpu time spent up to now is       25.4 secs

     End of self-consistent calculation

          k = 0.0000 0.0000 0.0000 (  1669 PWs)   bands (ev):

   -61.0633 -61.0150 -30.3759 -29.9799 -29.8744 -29.8744 -29.8282 -29.8282
     1.6587   6.8326   8.6025  12.3287  12.3287  14.1257  15.0097  15.0097
    16.0425  16.0425  17.6772  17.6772  17.7206  17.7206  19.8000  19.8159

     the Fermi energy is    17.6989 ev

!    total energy              =   -1267.51242529 Ry
     total all-electron energy =    -30560.121884 Ry
     estimated scf accuracy    <       0.00000010 Ry
     smearing contrib. (-TS)   =      -0.03278570 Ry
     internal energy E=F+TS    =   -1267.47963959 Ry

     The total energy is F=E-TS. E is the sum of the following terms:
     one-electron contribution =    -255.93927109 Ry
     hartree contribution      =     158.77339460 Ry
     xc contribution           =     -81.55011772 Ry
     ewald contribution        =    -276.74284603 Ry
     one-center paw contrib.   =    -812.02079935 Ry

     convergence has been achieved in  29 iterations

     Forces acting on atoms (cartesian axes, Ry/au):

     atom    1 type  1   force =     0.00000000   -0.00000000    0.00000000
     atom    2 type  1   force =     0.00000000    0.00000000    0.00000000
     atom    3 type  2   force =    -0.00000000   -0.00000000    0.00000000
     atom    4 type  2   force =    -0.00000000    0.00000000    0.00000000
     The non-local contrib.  to forces
     atom    1 type  1   force =     0.00000000    0.00000000   -0.00000000
     atom    2 type  1   force =     0.00000000    0.00000000    0.00000000
     atom    3 type  2   force =     0.00000000    0.00000000    0.00000000
     atom    4 type  2   force =     0.00000000    0.00000000    0.00000000
     The ionic contribution  to forces
     atom    1 type  1   force =    -0.00000000   -0.00000000    0.00000000
     atom    2 type  1   force =    -0.00000000   -0.00000000   -0.00000000
     atom    3 type  2   force =     0.00000014   -0.00000008    0.00000000
     atom    4 type  2   force =    -0.00000014    0.00000008   -0.00000000
     The local contribution  to forces
     atom    1 type  1   force =     0.00000000    0.00000000    0.00000000
     atom    2 type  1   force =     0.00000000    0.00000000   -0.00000000
     atom    3 type  2   force =    -0.00000009    0.00000005    0.00000000
     atom    4 type  2   force =     0.00000009   -0.00000005    0.00000000
     The core correction contribution to forces
     atom    1 type  1   force =    -0.00000000   -0.00000000    0.00000000
     atom    2 type  1   force =    -0.00000000   -0.00000000   -0.00000000
     atom    3 type  2   force =    -0.00000001    0.00000000    0.00000000
     atom    4 type  2   force =     0.00000001   -0.00000000   -0.00000000
     The Hubbard contrib.    to forces
     atom    1 type  1   force =     0.00000000    0.00000000    0.00000000
     atom    2 type  1   force =     0.00000000    0.00000000    0.00000000
     atom    3 type  2   force =     0.00000000    0.00000000    0.00000000
     atom    4 type  2   force =     0.00000000    0.00000000    0.00000000
     The SCF correction term to forces
     atom    1 type  1   force =     0.00000000    0.00000000   -0.00000000
     atom    2 type  1   force =     0.00000000    0.00000000    0.00000000
     atom    3 type  2   force =    -0.00000000    0.00000000    0.00000000
     atom    4 type  2   force =     0.00000000   -0.00000000    0.00000000

     Total force =     0.000000     Total SCF correction =     0.000000

     BFGS Geometry Optimization
     Energy error            =      0.0E+00 Ry
     Gradient error          =      8.3E-25 Ry/Bohr

     bfgs converged in   1 scf cycles and   0 bfgs steps
     (criteria: energy <  1.0E-04 Ry, force <  1.0E-03 Ry/Bohr)

     End of BFGS Geometry Optimization

     Final energy             =   -1267.5124252923 Ry
Begin final coordinates

ATOMIC_POSITIONS (angstrom)
Mn            0.0000000000        0.0000000000        0.0000000000
Mn            0.0000000000        0.0000000000        2.5225330000
Sb           -0.0000000182        2.1049059602        1.2612665000
Sb            1.8229020432        1.0524529643        3.7837995000
End final coordinates



     Writing all to output data dir ./out/MnNiSb.save/
 
     init_run     :      1.37s CPU      1.50s WALL (       1 calls)
     electrons    :     19.70s CPU     23.67s WALL (       1 calls)
     forces       :      0.12s CPU      0.18s WALL (       1 calls)

     Called by init_run:
     wfcinit      :      0.03s CPU      0.04s WALL (       1 calls)
     potinit      :      0.72s CPU      0.74s WALL (       1 calls)
     hinit0       :      0.55s CPU      0.55s WALL (       1 calls)

     Called by electrons:
     c_bands      :      1.73s CPU      1.75s WALL (      29 calls)
     sum_band     :      2.38s CPU      4.27s WALL (      29 calls)
     v_of_rho     :      0.43s CPU      0.44s WALL (      30 calls)
     newd         :      1.47s CPU      3.55s WALL (      30 calls)
     PAW_pot      :     14.27s CPU     14.35s WALL (      30 calls)
     mix_rho      :      0.10s CPU      0.10s WALL (      29 calls)

     Called by c_bands:
     init_us_2    :      0.03s CPU      0.04s WALL (      59 calls)
     init_us_2:cp :      0.03s CPU      0.04s WALL (      59 calls)
     cegterg      :      1.50s CPU      1.52s WALL (      29 calls)

     Called by *egterg:
     cdiaghg      :      0.06s CPU      0.06s WALL (     116 calls)
     h_psi        :      1.28s CPU      1.29s WALL (     117 calls)
     s_psi        :      0.05s CPU      0.05s WALL (     117 calls)
     g_psi        :      0.01s CPU      0.01s WALL (      87 calls)

     Called by h_psi:
     h_psi:calbec :      0.05s CPU      0.05s WALL (     117 calls)
     vloc_psi     :      1.16s CPU      1.18s WALL (     117 calls)
     add_vuspsi   :      0.05s CPU      0.05s WALL (     117 calls)

     General routines
     calbec       :      0.08s CPU      0.08s WALL (     150 calls)
     fft          :      0.13s CPU      0.14s WALL (     399 calls)
     ffts         :      0.02s CPU      0.02s WALL (      59 calls)
     fftw         :      1.21s CPU      1.22s WALL (    4052 calls)
     interpolate  :      0.02s CPU      0.03s WALL (      30 calls)
 
     Parallel routines
 
     PWSCF        :     21.41s CPU     25.61s WALL

 
   This run was terminated on:  13: 6:38   9Jun2023            

=------------------------------------------------------------------------------=
   JOB DONE.
=------------------------------------------------------------------------------=
