
     Program PWSCF v.7.2 starts on  9Jun2023 at 13: 8:32 

     This program is part of the open-source Quantum ESPRESSO suite
     for quantum simulation of materials; please cite
         "P. Giannozzi et al., J. Phys.:Condens. Matter 21 395502 (2009);
         "P. Giannozzi et al., J. Phys.:Condens. Matter 29 465901 (2017);
         "P. Giannozzi et al., J. Chem. Phys. 152 154105 (2020);
          URL http://www.quantum-espresso.org", 
     in publications or presentations arising from this work. More details at
     http://www.quantum-espresso.org/quote

     Parallel version (MPI), running on     1 processors

     MPI processes distributed on     1 nodes
     9050 MiB available memory on the printing compute node when the environment starts
 
     Waiting for input...
     Reading input from standard input
Warning: card &CELL ignored
Warning: card / ignored

     Current dimensions of program PWSCF are:
     Max number of different atomic species (ntypx) = 10
     Max number of k-points (npk) =  40000
     Max angular momentum in pseudopotentials (lmaxx) =  4
     file Mn.pbe-spn-kjpaw_psl.0.3.1.UPF: wavefunction(s)  3P 3D renormalized
     file Sb.pbe-n-kjpaw_psl.1.0.0.UPF: wavefunction(s)  5S renormalized
     Message from routine setup:
     using ibrav=0 with symmetry is DISCOURAGED, use correct ibrav instead
 
     Subspace diagonalization in iterative solution of the eigenvalue problem:
     a serial algorithm will be used

 
     G-vector sticks info
     --------------------
     sticks:   dense  smooth     PW     G-vecs:    dense   smooth      PW
     Sum         661     517    163                19075    13539    2247
 
     Using Slab Decomposition
 


     bravais-lattice index     =            0
     lattice parameter (alat)  =       6.8896  a.u.
     unit-cell volume          =     391.9049 (a.u.)^3
     number of atoms/cell      =            4
     number of atomic types    =            2
     number of electrons       =        40.00
     number of Kohn-Sham states=           24
     kinetic-energy cutoff     =      40.4242  Ry
     charge density cutoff     =     202.1211  Ry
     scf convergence threshold =      1.0E-06
     mixing beta               =       0.7000
     number of iterations used =            8  plain     mixing
     energy convergence thresh.=      1.0E-04
     force convergence thresh. =      1.0E-03
     Exchange-correlation= SLA  PW   PBX  PBC
                           (   1   4   3   4   0   0   0)
     nstep                     =           50


     celldm(1)=   6.889571  celldm(2)=   0.000000  celldm(3)=   0.000000
     celldm(4)=   0.000000  celldm(5)=   0.000000  celldm(6)=   0.000000

     crystal axes: (cart. coord. in units of alat)
               a(1) = (   1.000000   0.000000   0.000000 )  
               a(2) = (  -0.500000   0.866025   0.000000 )  
               a(3) = (   0.000000   0.000000   1.383801 )  

     reciprocal axes: (cart. coord. in units 2 pi/alat)
               b(1) = (  1.000000  0.577350  0.000000 )  
               b(2) = (  0.000000  1.154701  0.000000 )  
               b(3) = (  0.000000  0.000000  0.722647 )  


     PseudoPot. # 1 for Mn read from file:
     ./pseudos/Mn.pbe-spn-kjpaw_psl.0.3.1.UPF
     MD5 check sum: ba19e6d7ccbc12830efad05ba8577d9c
     Pseudo is Projector augmented-wave + core cor, Zval = 15.0
     Generated using &quot;atomic&quot; code by A. Dal Corso  v.6.2.2
     Shape of augmentation charge: PSQ
     Using radial grid of 1187 points,  6 beta functions with: 
                l(1) =   0
                l(2) =   0
                l(3) =   1
                l(4) =   1
                l(5) =   2
                l(6) =   2
     Q(r) pseudized with 0 coefficients 


     PseudoPot. # 2 for Sb read from file:
     ./pseudos/Sb.pbe-n-kjpaw_psl.1.0.0.UPF
     MD5 check sum: 6b903ae7923846f66e229fa892705b98
     Pseudo is Projector augmented-wave + core cor, Zval =  5.0
     Generated using &quot;atomic&quot; code by A. Dal Corso  v.6.2.2
     Shape of augmentation charge: PSQ
     Using radial grid of 1243 points,  6 beta functions with: 
                l(1) =   0
                l(2) =   0
                l(3) =   1
                l(4) =   1
                l(5) =   2
                l(6) =   2
     Q(r) pseudized with 0 coefficients 


     atomic species   valence    mass     pseudopotential
        Mn            15.00    54.93804     Mn( 1.00)
        Sb             5.00   121.76000     Sb( 1.00)

     24 Sym. Ops., with inversion, found (12 have fractional translation)



   Cartesian axes

     site n.     atom                  positions (alat units)
         1           Mn  tau(   1) = (   0.0000000   0.0000000   0.0000000  )
         2           Mn  tau(   2) = (   0.0000000   0.0000000   0.6919003  )
         3           Sb  tau(   3) = (  -0.0000000   0.5773503   0.3459502  )
         4           Sb  tau(   4) = (   0.5000000   0.2886751   1.0378505  )

     number of k points=    32  Gaussian smearing, width (Ry)=  0.0147
                       cart. coord. in units 2pi/alat
        k(    1) = (   0.0000000   0.0000000   0.0000000), wk =   0.0058309
        k(    2) = (   0.0000000   0.0000000   0.1032353), wk =   0.0116618
        k(    3) = (   0.0000000   0.0000000   0.2064707), wk =   0.0116618
        k(    4) = (   0.0000000   0.0000000   0.3097060), wk =   0.0116618
        k(    5) = (   0.0000000   0.1649572   0.0000000), wk =   0.0349854
        k(    6) = (   0.0000000   0.1649572   0.1032353), wk =   0.0699708
        k(    7) = (   0.0000000   0.1649572   0.2064707), wk =   0.0699708
        k(    8) = (   0.0000000   0.1649572   0.3097060), wk =   0.0699708
        k(    9) = (   0.0000000   0.3299144   0.0000000), wk =   0.0349854
        k(   10) = (   0.0000000   0.3299144   0.1032353), wk =   0.0699708
        k(   11) = (   0.0000000   0.3299144   0.2064707), wk =   0.0699708
        k(   12) = (   0.0000000   0.3299144   0.3097060), wk =   0.0699708
        k(   13) = (   0.0000000   0.4948717   0.0000000), wk =   0.0349854
        k(   14) = (   0.0000000   0.4948717   0.1032353), wk =   0.0699708
        k(   15) = (   0.0000000   0.4948717   0.2064707), wk =   0.0699708
        k(   16) = (   0.0000000   0.4948717   0.3097060), wk =   0.0699708
        k(   17) = (   0.1428571   0.2474358   0.0000000), wk =   0.0349854
        k(   18) = (   0.1428571   0.2474358   0.1032353), wk =   0.0699708
        k(   19) = (   0.1428571   0.2474358   0.2064707), wk =   0.0699708
        k(   20) = (   0.1428571   0.2474358   0.3097060), wk =   0.0699708
        k(   21) = (   0.1428571   0.4123930   0.0000000), wk =   0.0699708
        k(   22) = (   0.1428571   0.4123930   0.1032353), wk =   0.1399417
        k(   23) = (   0.1428571   0.4123930   0.2064707), wk =   0.1399417
        k(   24) = (   0.1428571   0.4123930   0.3097060), wk =   0.1399417
        k(   25) = (   0.1428571   0.5773503   0.0000000), wk =   0.0349854
        k(   26) = (   0.1428571   0.5773503   0.1032353), wk =   0.0699708
        k(   27) = (   0.1428571   0.5773503   0.2064707), wk =   0.0699708
        k(   28) = (   0.1428571   0.5773503   0.3097060), wk =   0.0699708
        k(   29) = (   0.2857143   0.4948717   0.0000000), wk =   0.0349854
        k(   30) = (   0.2857143   0.4948717   0.1032353), wk =   0.0699708
        k(   31) = (   0.2857143   0.4948717   0.2064707), wk =   0.0699708
        k(   32) = (   0.2857143   0.4948717   0.3097060), wk =   0.0699708

     Dense  grid:    19075 G-vectors     FFT dimensions: (  32,  32,  48)

     Smooth grid:    13539 G-vectors     FFT dimensions: (  27,  27,  40)

     Estimated max dynamical RAM per process >      92.01 MB

     Check: negative core charge=   -0.000064

     Initial potential from superposition of free atoms

     starting charge      39.9977, renormalised to      40.0000
     Starting wfcs are   28 randomized atomic wfcs
     Checking if some PAW data can be deallocated... 

     total cpu time spent up to now is        2.8 secs

     Self-consistent Calculation

     iteration #  1     ecut=    40.42 Ry     beta= 0.70
     Davidson diagonalization with overlap
     ethr =  1.00E-02,  avg # of iterations =  2.2

     total cpu time spent up to now is        6.3 secs

     total energy              =   -1267.49275968 Ry
     estimated scf accuracy    <       0.97154004 Ry

     iteration #  2     ecut=    40.42 Ry     beta= 0.70
     Davidson diagonalization with overlap
     ethr =  2.43E-03,  avg # of iterations =  6.3

     total cpu time spent up to now is       10.8 secs

     total energy              =   -1267.13209396 Ry
     estimated scf accuracy    <       9.52535214 Ry

     iteration #  3     ecut=    40.42 Ry     beta= 0.70
     Davidson diagonalization with overlap
     ethr =  2.43E-03,  avg # of iterations =  5.8

     total cpu time spent up to now is       15.1 secs

     total energy              =   -1268.16634406 Ry
     estimated scf accuracy    <       0.05343302 Ry

     iteration #  4     ecut=    40.42 Ry     beta= 0.70
     Davidson diagonalization with overlap
     ethr =  1.34E-04,  avg # of iterations =  5.9

     total cpu time spent up to now is       19.1 secs

     total energy              =   -1268.18966773 Ry
     estimated scf accuracy    <       0.01943773 Ry

     iteration #  5     ecut=    40.42 Ry     beta= 0.70
     Davidson diagonalization with overlap
     ethr =  4.86E-05,  avg # of iterations =  1.7

     total cpu time spent up to now is       21.9 secs

     total energy              =   -1268.18989553 Ry
     estimated scf accuracy    <       0.00359717 Ry

     iteration #  6     ecut=    40.42 Ry     beta= 0.70
     Davidson diagonalization with overlap
     ethr =  8.99E-06,  avg # of iterations =  5.2

     total cpu time spent up to now is       25.4 secs

     total energy              =   -1268.19118066 Ry
     estimated scf accuracy    <       0.00110046 Ry

     iteration #  7     ecut=    40.42 Ry     beta= 0.70
     Davidson diagonalization with overlap
     ethr =  2.75E-06,  avg # of iterations =  2.7

     total cpu time spent up to now is       28.3 secs

     total energy              =   -1268.19125104 Ry
     estimated scf accuracy    <       0.00015452 Ry

     iteration #  8     ecut=    40.42 Ry     beta= 0.70
     Davidson diagonalization with overlap
     ethr =  3.86E-07,  avg # of iterations =  5.0

     total cpu time spent up to now is       32.0 secs

     total energy              =   -1268.19130463 Ry
     estimated scf accuracy    <       0.00000126 Ry

     iteration #  9     ecut=    40.42 Ry     beta= 0.70
     Davidson diagonalization with overlap
     ethr =  3.14E-09,  avg # of iterations =  8.4

     total cpu time spent up to now is       37.6 secs

     total energy              =   -1268.19130814 Ry
     estimated scf accuracy    <       0.00000483 Ry

     iteration # 10     ecut=    40.42 Ry     beta= 0.70
     Davidson diagonalization with overlap
     ethr =  3.14E-09,  avg # of iterations =  1.8

     total cpu time spent up to now is       40.6 secs

     total energy              =   -1268.19130736 Ry
     estimated scf accuracy    <       0.00000237 Ry

     iteration # 11     ecut=    40.42 Ry     beta= 0.70
     Davidson diagonalization with overlap
     ethr =  3.14E-09,  avg # of iterations =  4.6

     total cpu time spent up to now is       44.3 secs

     End of self-consistent calculation

          k = 0.0000 0.0000 0.0000 (  1669 PWs)   bands (ev):

   -63.1687 -63.1234 -32.3667 -31.9984 -31.9147 -31.9147 -31.8728 -31.8728
     1.6765   6.8590   8.5123  11.6434  11.6434  12.7931  13.7222  13.7222
    14.6397  14.6397  15.9356  15.9356  17.5933  17.5933  18.0485  19.8512

          k = 0.0000 0.0000 0.1032 (  1669 PWs)   bands (ev):

   -63.1665 -63.1256 -32.3487 -32.0170 -31.9126 -31.9126 -31.8748 -31.8748
     1.8041   5.9758   9.5258  11.7437  11.7437  12.8719  13.7964  13.7964
    14.3981  14.3981  15.6572  15.6572  17.8194  18.0496  18.0496  20.0591

          k = 0.0000 0.0000 0.2065 (  1669 PWs)   bands (ev):

   -63.1602 -63.1319 -32.2981 -32.0688 -31.9069 -31.9069 -31.8806 -31.8806
     2.1846   4.7495  11.0779  12.0389  12.0389  13.0450  13.8068  13.8068
    14.0119  14.0119  15.2058  15.2058  17.3774  18.9200  18.9225  18.9225

          k = 0.0000 0.0000 0.3097 (  1694 PWs)   bands (ev):

   -63.1511 -63.1411 -32.2252 -32.1431 -31.8985 -31.8985 -31.8892 -31.8892
     2.8118   3.6739  12.4180  12.5109  12.5109  13.0554  13.1243  13.1243
    14.3436  14.3436  14.7568  14.7568  17.1812  17.7387  19.8062  19.8062

          k = 0.0000 0.1650 0.0000 (  1694 PWs)   bands (ev):

   -63.1684 -63.1230 -32.3656 -31.9978 -31.9190 -31.9161 -31.8757 -31.8728
     1.9969   6.8224   8.8710  11.4418  11.7367  12.6699  13.3514  13.4920
    14.2366  14.7584  15.8769  15.9378  16.4636  17.0708  17.8850  19.4811

          k = 0.0000 0.1650 0.1032 (  1687 PWs)   bands (ev):

   -63.1662 -63.1252 -32.3476 -32.0163 -31.9168 -31.9139 -31.8778 -31.8750
     2.1221   6.1035   9.6148  11.6250  11.8290  12.7580  13.2982  13.5117
    14.0890  14.5962  15.5499  15.6369  16.9247  17.5118  17.7407  19.3985

          k = 0.0000 0.1650 0.2065 (  1686 PWs)   bands (ev):

   -63.1599 -63.1315 -32.2972 -32.0680 -31.9108 -31.9080 -31.8838 -31.8810
     2.4951   4.9737  10.6907  12.0983  12.2095  12.8590  13.0422  13.4339
    14.0393  14.3492  15.1083  15.1970  17.3454  17.7697  18.2946  18.9091

          k = 0.0000 0.1650 0.3097 (  1689 PWs)   bands (ev):

   -63.1508 -63.1407 -32.2241 -32.1423 -31.9021 -31.8993 -31.8925 -31.8897
     3.1078   3.9445  11.5147  12.2312  12.5184  12.9440  13.0257  13.1831
    14.2773  14.4523  14.6651  14.7870  17.4104  18.0510  18.5001  19.1085

          k = 0.0000 0.3299 0.0000 (  1706 PWs)   bands (ev):

   -63.1677 -63.1221 -32.3631 -31.9963 -31.9283 -31.9192 -31.8821 -31.8728
     2.9233   6.6058   9.8850  10.4878  11.9284  12.2029  12.9810  13.1457
    13.4239  15.0484  15.3266  15.7734  15.9489  15.9737  17.1668  18.7082

          k = 0.0000 0.3299 0.1032 (  1700 PWs)   bands (ev):

   -63.1655 -63.1243 -32.3452 -32.0147 -31.9261 -31.9170 -31.8844 -31.8751
     3.0397   6.2735   9.6838  11.0236  11.9986  12.2431  12.8476  13.1339
    13.6045  14.9356  15.2001  15.5192  15.9044  16.5567  17.0644  18.5192

          k = 0.0000 0.3299 0.2065 (  1696 PWs)   bands (ev):

   -63.1592 -63.1307 -32.2949 -32.0663 -31.9196 -31.9105 -31.8908 -31.8815
     3.3841   5.5134   9.7579  11.1671  12.1989  12.5946  13.0199  13.0473
    13.8292  14.7551  14.9176  15.2074  16.1569  16.8701  17.2505  18.3576

          k = 0.0000 0.3299 0.3097 (  1700 PWs)   bands (ev):

   -63.1500 -63.1398 -32.2220 -32.1404 -31.9103 -31.9012 -31.9001 -31.8909
     3.9407   4.6756  10.1285  10.6633  12.4946  12.8147  13.0734  13.2984
    14.1052  14.5423  14.7545  14.9402  16.4177  16.6731  18.0274  18.7320

          k = 0.0000 0.4949 0.0000 (  1702 PWs)   bands (ev):

   -63.1671 -63.1213 -32.3610 -31.9950 -31.9358 -31.9217 -31.8872 -31.8728
     4.2979   5.8428   9.2881  11.3009  11.9801  12.1903  12.5620  12.7285
    13.1798  14.8377  15.0580  15.3026  15.6824  15.9612  15.9712  18.1638

          k = 0.0000 0.4949 0.1032 (  1709 PWs)   bands (ev):

   -63.1649 -63.1236 -32.3433 -32.0135 -31.9334 -31.9193 -31.8896 -31.8752
     4.3893   5.8324   9.0568  10.8600  12.0335  12.2456  12.7591  13.1156
    13.1954  14.8568  14.9996  15.3546  15.6204  15.8957  16.1118  18.3273

          k = 0.0000 0.4949 0.2065 (  1704 PWs)   bands (ev):

   -63.1585 -63.1300 -32.2931 -32.0649 -31.9267 -31.9126 -31.8963 -31.8820
     4.6507   5.7348   8.7449  10.0257  12.1862  12.5187  12.9356  13.3342
    13.6202  14.8935  14.9863  15.3233  15.4472  15.7272  16.5622  18.8000

          k = 0.0000 0.4949 0.3097 (  1703 PWs)   bands (ev):

   -63.1494 -63.1392 -32.2203 -32.1388 -31.9169 -31.9061 -31.9028 -31.8919
     5.0368   5.4488   8.7962   9.2704  12.4153  12.6827  12.9353  13.3148
    14.2040  14.7209  15.0697  15.2029  15.3678  15.5226  17.2766  18.2190

          k = 0.1429 0.2474 0.0000 (  1691 PWs)   bands (ev):

   -63.1679 -63.1223 -32.3637 -31.9967 -31.9252 -31.9189 -31.8797 -31.8733
     2.6210   6.7110   9.5581  11.0934  11.7042  12.0511  13.0639  13.2814
    13.6408  14.9846  15.4438  15.8107  15.9341  16.3734  17.5148  19.7427

          k = 0.1429 0.2474 0.1032 (  1700 PWs)   bands (ev):

   -63.1657 -63.1246 -32.3458 -32.0152 -31.9230 -31.9166 -31.8820 -31.8756
     2.7407   6.2615   9.7559  11.5020  11.7853  12.0220  13.0676  13.1003
    13.7892  14.8653  15.2968  15.5781  16.0300  16.7694  17.4575  19.1204

          k = 0.1429 0.2474 0.2065 (  1704 PWs)   bands (ev):

   -63.1594 -63.1309 -32.2956 -32.0668 -31.9167 -31.9104 -31.8883 -31.8820
     3.0957   5.3615  10.1379  11.7269  12.0415  12.3450  13.0225  13.0577
    14.0493  14.5997  15.0127  15.1790  16.4718  17.0857  17.5546  18.4977

          k = 0.1429 0.2474 0.3097 (  1699 PWs)   bands (ev):

   -63.1502 -63.1401 -32.2226 -32.1409 -31.9076 -31.9012 -31.8974 -31.8911
     3.6736   4.4480  10.6241  11.1927  12.3633  12.6454  13.1933  13.2015
    14.3448  14.4358  14.7362  14.8399  16.9650  17.2036  17.6989  17.9664

          k = 0.1429 0.4124 0.0000 (  1717 PWs)   bands (ev):

   -63.1673 -63.1215 -32.3615 -31.9953 -31.9326 -31.9228 -31.8845 -31.8745
     3.7818   6.3242   9.9692  10.7795  11.2579  11.5495  12.9054  13.0345
    13.4284  14.9109  15.3220  15.6022  15.7459  15.9326  16.5679  18.6570

          k = 0.1429 0.4124 0.1032 (  1707 PWs)   bands (ev):

   -63.1650 -63.1238 -32.3437 -32.0138 -31.9302 -31.9204 -31.8869 -31.8768
     3.8857   6.2007   9.6243  10.7131  11.5014  11.7700  12.7775  13.1710
    13.5892  14.9368  15.1473  15.4597  15.7085  16.2008  16.4627  18.3728

          k = 0.1429 0.4124 0.2065 (  1702 PWs)   bands (ev):

   -63.1587 -63.1301 -32.2935 -32.0652 -31.9235 -31.9137 -31.8935 -31.8835
     4.1891   5.8159   9.3515  10.3873  11.6115  12.2615  12.9016  13.2716
    13.9101  14.8219  14.9992  15.3194  15.6281  16.1548  16.6323  18.0072

          k = 0.1429 0.4124 0.3097 (  1706 PWs)   bands (ev):

   -63.1495 -63.1393 -32.2207 -32.1392 -31.9139 -31.9045 -31.9027 -31.8932
     4.6638   5.2472   9.4765   9.8852  11.9273  12.2256  13.1491  13.3113
    14.2508  14.5576  15.0546  15.1654  15.6551  15.8620  17.0311  17.4961

          k = 0.1429 0.5774 0.0000 (  1699 PWs)   bands (ev):

   -63.1670 -63.1211 -32.3605 -31.9946 -31.9357 -31.9245 -31.8864 -31.8749
     4.9826   5.5162   9.1863  11.2290  11.3780  12.0325  12.1068  13.0623
    13.5677  14.9305  15.0746  15.5896  15.6304  15.7661  15.9465  18.2827

          k = 0.1429 0.5774 0.1032 (  1712 PWs)   bands (ev):

   -63.1647 -63.1234 -32.3427 -32.0131 -31.9333 -31.9221 -31.8889 -31.8774
     5.0467   5.5583   9.0502  10.7328  11.2947  12.1163  12.4487  13.2234
    13.6426  14.9371  15.0040  15.5494  15.6373  15.7011  16.0356  18.5139

          k = 0.1429 0.5774 0.2065 (  1698 PWs)   bands (ev):

   -63.1584 -63.1298 -32.2926 -32.0645 -31.9265 -31.9153 -31.8957 -31.8843
     5.2225   5.6347   8.8023   9.8903  11.3986  12.1498  12.9215  13.3205
    13.8952  14.9252  14.9365  15.3825  15.5429  15.5784  16.3125  17.8833

          k = 0.1429 0.5774 0.3097 (  1704 PWs)   bands (ev):

   -63.1492 -63.1390 -32.2198 -32.1384 -31.9167 -31.9065 -31.9045 -31.8942
     5.4510   5.6194   8.7800   9.1689  11.7094  12.0210  13.1512  13.2452
    14.3281  14.7582  14.9773  15.1519  15.4280  15.4772  16.7233  17.2471

          k = 0.2857 0.4949 0.0000 (  1719 PWs)   bands (ev):

   -63.1669 -63.1210 -32.3603 -31.9946 -31.9333 -31.9283 -31.8836 -31.8785
     4.9582   5.9002   9.3229  10.3784  10.8253  11.8598  12.4449  13.5897
    13.6381  14.9385  15.2645  15.5258  15.7785  15.8825  16.3000  17.5726

          k = 0.2857 0.4949 0.1032 (  1705 PWs)   bands (ev):

   -63.1646 -63.1233 -32.3424 -32.0129 -31.9308 -31.9258 -31.8860 -31.8809
     5.0297   5.9023   9.4291  10.0376  10.6091  12.1498  12.6121  13.3378
    13.7358  14.9386  15.1190  15.5208  15.7392  15.9681  16.2041  17.2911

          k = 0.2857 0.4949 0.2065 (  1709 PWs)   bands (ev):

   -63.1583 -63.1297 -32.2924 -32.0643 -31.9240 -31.9189 -31.8929 -31.8879
     5.2277   5.8739   9.5438   9.5962  10.3546  12.2027  12.9196  13.0622
    14.0060  14.8708  14.9161  15.3493  15.6775  16.0029  16.1546  16.9308

          k = 0.2857 0.4949 0.3097 (  1695 PWs)   bands (ev):

   -63.1491 -63.1389 -32.2196 -32.1382 -31.9141 -31.9092 -31.9026 -31.8977
     5.4973   5.7421   9.3171   9.4248  10.7395  11.4848  13.1682  13.2129
    14.3687  14.6469  14.8804  15.0405  15.6975  15.8190  16.3782  16.6335

     the Fermi energy is    15.5531 ev

!    total energy              =   -1268.19130726 Ry
     total all-electron energy =    -30560.800766 Ry
     estimated scf accuracy    <       0.00000097 Ry
     smearing contrib. (-TS)   =      -0.00867489 Ry
     internal energy E=F+TS    =   -1268.18263237 Ry

     The total energy is F=E-TS. E is the sum of the following terms:
     one-electron contribution =    -253.06437459 Ry
     hartree contribution      =     155.04110458 Ry
     xc contribution           =     -81.21674863 Ry
     ewald contribution        =    -276.74284603 Ry
     one-center paw contrib.   =    -812.19976770 Ry

     convergence has been achieved in  11 iterations

     Forces acting on atoms (cartesian axes, Ry/au):

     atom    1 type  1   force =     0.00000000    0.00000000    0.00000000
     atom    2 type  1   force =     0.00000000   -0.00000000   -0.00000000
     atom    3 type  2   force =    -0.00000000   -0.00000000   -0.00000000
     atom    4 type  2   force =     0.00000000    0.00000000   -0.00000000
     The non-local contrib.  to forces
     atom    1 type  1   force =     0.00000000   -0.00000000    0.00000000
     atom    2 type  1   force =     0.00000000    0.00000000    0.00000000
     atom    3 type  2   force =     0.00000000    0.00000000    0.00000000
     atom    4 type  2   force =     0.00000000    0.00000000    0.00000000
     The ionic contribution  to forces
     atom    1 type  1   force =    -0.00000000   -0.00000000    0.00000000
     atom    2 type  1   force =    -0.00000000   -0.00000000   -0.00000000
     atom    3 type  2   force =     0.00000014   -0.00000008    0.00000000
     atom    4 type  2   force =    -0.00000014    0.00000008   -0.00000000
     The local contribution  to forces
     atom    1 type  1   force =     0.00000000   -0.00000000   -0.00000000
     atom    2 type  1   force =     0.00000000   -0.00000000   -0.00000000
     atom    3 type  2   force =    -0.00000009    0.00000005    0.00000000
     atom    4 type  2   force =     0.00000009   -0.00000005    0.00000000
     The core correction contribution to forces
     atom    1 type  1   force =    -0.00000000   -0.00000000    0.00000000
     atom    2 type  1   force =     0.00000000   -0.00000000   -0.00000000
     atom    3 type  2   force =    -0.00000001    0.00000000    0.00000000
     atom    4 type  2   force =     0.00000001   -0.00000000   -0.00000000
     The Hubbard contrib.    to forces
     atom    1 type  1   force =     0.00000000    0.00000000    0.00000000
     atom    2 type  1   force =     0.00000000    0.00000000    0.00000000
     atom    3 type  2   force =     0.00000000    0.00000000    0.00000000
     atom    4 type  2   force =     0.00000000    0.00000000    0.00000000
     The SCF correction term to forces
     atom    1 type  1   force =    -0.00000000   -0.00000000   -0.00000000
     atom    2 type  1   force =    -0.00000000   -0.00000000   -0.00000000
     atom    3 type  2   force =    -0.00000000    0.00000000    0.00000000
     atom    4 type  2   force =     0.00000000   -0.00000000   -0.00000000

     Total force =     0.000000     Total SCF correction =     0.000000

     BFGS Geometry Optimization
     Energy error            =      0.0E+00 Ry
     Gradient error          =      1.4E-24 Ry/Bohr

     bfgs converged in   1 scf cycles and   0 bfgs steps
     (criteria: energy <  1.0E-04 Ry, force <  1.0E-03 Ry/Bohr)

     End of BFGS Geometry Optimization

     Final energy             =   -1268.1913072583 Ry
Begin final coordinates

ATOMIC_POSITIONS (angstrom)
Mn            0.0000000000        0.0000000000        0.0000000000
Mn            0.0000000000        0.0000000000        2.5225330000
Sb           -0.0000000182        2.1049059602        1.2612665000
Sb            1.8229020432        1.0524529643        3.7837995000
End final coordinates



     Writing all to output data dir ./out/MnNiSb.save/
 
     init_run     :      2.42s CPU      2.56s WALL (       1 calls)
     electrons    :     39.75s CPU     41.50s WALL (       1 calls)
     forces       :      0.26s CPU      0.33s WALL (       1 calls)

     Called by init_run:
     wfcinit      :      1.03s CPU      1.06s WALL (       1 calls)
     potinit      :      0.70s CPU      0.72s WALL (       1 calls)
     hinit0       :      0.60s CPU      0.61s WALL (       1 calls)

     Called by electrons:
     c_bands      :     29.30s CPU     29.48s WALL (      11 calls)
     sum_band     :      4.65s CPU      5.43s WALL (      11 calls)
     v_of_rho     :      0.18s CPU      0.18s WALL (      12 calls)
     newd         :      0.59s CPU      1.42s WALL (      12 calls)
     PAW_pot      :      5.72s CPU      5.76s WALL (      12 calls)
     mix_rho      :      0.03s CPU      0.03s WALL (      11 calls)

     Called by c_bands:
     init_us_2    :      0.39s CPU      0.40s WALL (     768 calls)
     init_us_2:cp :      0.39s CPU      0.40s WALL (     768 calls)
     cegterg      :     26.56s CPU     26.71s WALL (     352 calls)

     Called by *egterg:
     cdiaghg      :      1.00s CPU      1.01s WALL (    1939 calls)
     h_psi        :     22.77s CPU     22.92s WALL (    1971 calls)
     s_psi        :      0.84s CPU      0.85s WALL (    1971 calls)
     g_psi        :      0.19s CPU      0.19s WALL (    1587 calls)

     Called by h_psi:
     h_psi:calbec :      0.88s CPU      0.89s WALL (    1971 calls)
     vloc_psi     :     20.96s CPU     21.09s WALL (    1971 calls)
     add_vuspsi   :      0.84s CPU      0.85s WALL (    1971 calls)

     General routines
     calbec       :      1.21s CPU      1.22s WALL (    2451 calls)
     fft          :      0.06s CPU      0.07s WALL (     165 calls)
     ffts         :      0.01s CPU      0.01s WALL (      23 calls)
     fftw         :     21.26s CPU     21.40s WALL (   61846 calls)
     interpolate  :      0.01s CPU      0.01s WALL (      12 calls)
 
     Parallel routines
 
     PWSCF        :     42.65s CPU     44.70s WALL

 
   This run was terminated on:  13: 9:17   9Jun2023            

=------------------------------------------------------------------------------=
   JOB DONE.
=------------------------------------------------------------------------------=
