
     Program PWSCF v.7.2 starts on 10Jun2023 at  0:26:32 

     This program is part of the open-source Quantum ESPRESSO suite
     for quantum simulation of materials; please cite
         "P. Giannozzi et al., J. Phys.:Condens. Matter 21 395502 (2009);
         "P. Giannozzi et al., J. Phys.:Condens. Matter 29 465901 (2017);
         "P. Giannozzi et al., J. Chem. Phys. 152 154105 (2020);
          URL http://www.quantum-espresso.org", 
     in publications or presentations arising from this work. More details at
     http://www.quantum-espresso.org/quote

     Parallel version (MPI), running on     1 processors

     MPI processes distributed on     1 nodes
     6233 MiB available memory on the printing compute node when the environment starts
 
     Waiting for input...
     Reading input from standard input

     Current dimensions of program PWSCF are:
     Max number of different atomic species (ntypx) = 10
     Max number of k-points (npk) =  40000
     Max angular momentum in pseudopotentials (lmaxx) =  4
     file Mn.pbe-spn-kjpaw_psl.0.3.1.UPF: wavefunction(s)  3P 3D renormalized
     file Ni.pbe-spn-kjpaw_psl.1.0.0.UPF: wavefunction(s)  3P 3D renormalized
     file Sb.pbe-n-kjpaw_psl.1.0.0.UPF: wavefunction(s)  5S renormalized
     Found identity + (  0.0000 -0.5000 -0.5000) symmetry
     This is a supercell, fractional translations are disabled
     Message from routine setup:
     using ibrav=0 with symmetry is DISCOURAGED, use correct ibrav instead
 
     Subspace diagonalization in iterative solution of the eigenvalue problem:
     a serial algorithm will be used

 
     G-vector sticks info
     --------------------
     sticks:   dense  smooth     PW     G-vecs:    dense   smooth      PW
     Sum        8109    2709    757               550697   106047   15659
 
     Using Slab Decomposition
 


     bravais-lattice index     =            0
     lattice parameter (alat)  =      11.4389  a.u.
     unit-cell volume          =    1496.7568 (a.u.)^3
     number of atoms/cell      =           16
     number of atomic types    =            3
     number of electrons       =       224.00
     number of Kohn-Sham states=          134
     kinetic-energy cutoff     =      65.0000  Ry
     charge density cutoff     =     780.0000  Ry
     scf convergence threshold =      3.2E-09
     mixing beta               =       0.4000
     number of iterations used =            8  plain     mixing
     Exchange-correlation= SLA  PW   PBX  PBC
                           (   1   4   3   4   0   0   0)

     celldm(1)=  11.438886  celldm(2)=   0.000000  celldm(3)=   0.000000
     celldm(4)=   0.000000  celldm(5)=   0.000000  celldm(6)=   0.000000

     crystal axes: (cart. coord. in units of alat)
               a(1) = (   1.000000   0.000000   0.000000 )  
               a(2) = (   0.000000   1.000000   0.000000 )  
               a(3) = (   0.000000   0.000000   1.000000 )  

     reciprocal axes: (cart. coord. in units 2 pi/alat)
               b(1) = (  1.000000  0.000000  0.000000 )  
               b(2) = (  0.000000  1.000000  0.000000 )  
               b(3) = (  0.000000  0.000000  1.000000 )  


     PseudoPot. # 1 for Mn read from file:
     ./pseudos/Mn.pbe-spn-kjpaw_psl.0.3.1.UPF
     MD5 check sum: ba19e6d7ccbc12830efad05ba8577d9c
     Pseudo is Projector augmented-wave + core cor, Zval = 15.0
     Generated using &quot;atomic&quot; code by A. Dal Corso  v.6.2.2
     Shape of augmentation charge: PSQ
     Using radial grid of 1187 points,  6 beta functions with: 
                l(1) =   0
                l(2) =   0
                l(3) =   1
                l(4) =   1
                l(5) =   2
                l(6) =   2
     Q(r) pseudized with 0 coefficients 


     PseudoPot. # 2 for Ni read from file:
     ./pseudos/Ni.pbe-spn-kjpaw_psl.1.0.0.UPF
     MD5 check sum: 6e86b733589c3ad8389697b807d86aa7
     Pseudo is Projector augmented-wave + core cor, Zval = 18.0
     Generated using &quot;atomic&quot; code by A. Dal Corso  v.6.3
     Shape of augmentation charge: PSQ
     Using radial grid of 1195 points,  6 beta functions with: 
                l(1) =   0
                l(2) =   0
                l(3) =   1
                l(4) =   1
                l(5) =   2
                l(6) =   2
     Q(r) pseudized with 0 coefficients 


     PseudoPot. # 3 for Sb read from file:
     ./pseudos/Sb.pbe-n-kjpaw_psl.1.0.0.UPF
     MD5 check sum: 6b903ae7923846f66e229fa892705b98
     Pseudo is Projector augmented-wave + core cor, Zval =  5.0
     Generated using &quot;atomic&quot; code by A. Dal Corso  v.6.2.2
     Shape of augmentation charge: PSQ
     Using radial grid of 1243 points,  6 beta functions with: 
                l(1) =   0
                l(2) =   0
                l(3) =   1
                l(4) =   1
                l(5) =   2
                l(6) =   2
     Q(r) pseudized with 0 coefficients 


     atomic species   valence    mass     pseudopotential
        Mn            15.00    54.93804     Mn( 1.00)
        Ni            18.00    58.69340     Ni( 1.00)
        Sb             5.00   121.76000     Sb( 1.00)

     Starting magnetic structure 
     atomic species   magnetization
        Mn           0.333
        Ni           0.278
        Sb           0.100

     48 Sym. Ops., with inversion, found


                                    s                        frac. trans.

      isym =  1     identity                                     

 cryst.   s( 1) = (     1          0          0      )
                  (     0          1          0      )
                  (     0          0          1      )

 cart.    s( 1) = (  1.0000000  0.0000000  0.0000000 )
                  (  0.0000000  1.0000000  0.0000000 )
                  (  0.0000000  0.0000000  1.0000000 )


      isym =  2     180 deg rotation - cart. axis [0,0,1]        

 cryst.   s( 2) = (    -1          0          0      )
                  (     0         -1          0      )
                  (     0          0          1      )

 cart.    s( 2) = ( -1.0000000  0.0000000  0.0000000 )
                  (  0.0000000 -1.0000000  0.0000000 )
                  (  0.0000000  0.0000000  1.0000000 )


      isym =  3     180 deg rotation - cart. axis [0,1,0]        

 cryst.   s( 3) = (    -1          0          0      )
                  (     0          1          0      )
                  (     0          0         -1      )

 cart.    s( 3) = ( -1.0000000  0.0000000  0.0000000 )
                  (  0.0000000  1.0000000  0.0000000 )
                  (  0.0000000  0.0000000 -1.0000000 )


      isym =  4     180 deg rotation - cart. axis [1,0,0]        

 cryst.   s( 4) = (     1          0          0      )
                  (     0         -1          0      )
                  (     0          0         -1      )

 cart.    s( 4) = (  1.0000000  0.0000000  0.0000000 )
                  (  0.0000000 -1.0000000  0.0000000 )
                  (  0.0000000  0.0000000 -1.0000000 )


      isym =  5     180 deg rotation - cart. axis [1,1,0]        

 cryst.   s( 5) = (     0          1          0      )
                  (     1          0          0      )
                  (     0          0         -1      )

 cart.    s( 5) = (  0.0000000  1.0000000  0.0000000 )
                  (  1.0000000  0.0000000  0.0000000 )
                  (  0.0000000  0.0000000 -1.0000000 )


      isym =  6     180 deg rotation - cart. axis [1,-1,0]       

 cryst.   s( 6) = (     0         -1          0      )
                  (    -1          0          0      )
                  (     0          0         -1      )

 cart.    s( 6) = (  0.0000000 -1.0000000  0.0000000 )
                  ( -1.0000000  0.0000000  0.0000000 )
                  (  0.0000000  0.0000000 -1.0000000 )


      isym =  7      90 deg rotation - cart. axis [0,0,-1]       

 cryst.   s( 7) = (     0         -1          0      )
                  (     1          0          0      )
                  (     0          0          1      )

 cart.    s( 7) = (  0.0000000  1.0000000  0.0000000 )
                  ( -1.0000000  0.0000000  0.0000000 )
                  (  0.0000000  0.0000000  1.0000000 )


      isym =  8      90 deg rotation - cart. axis [0,0,1]        

 cryst.   s( 8) = (     0          1          0      )
                  (    -1          0          0      )
                  (     0          0          1      )

 cart.    s( 8) = (  0.0000000 -1.0000000  0.0000000 )
                  (  1.0000000  0.0000000  0.0000000 )
                  (  0.0000000  0.0000000  1.0000000 )


      isym =  9     180 deg rotation - cart. axis [1,0,1]        

 cryst.   s( 9) = (     0          0          1      )
                  (     0         -1          0      )
                  (     1          0          0      )

 cart.    s( 9) = (  0.0000000  0.0000000  1.0000000 )
                  (  0.0000000 -1.0000000  0.0000000 )
                  (  1.0000000  0.0000000  0.0000000 )


      isym = 10     180 deg rotation - cart. axis [-1,0,1]       

 cryst.   s(10) = (     0          0         -1      )
                  (     0         -1          0      )
                  (    -1          0          0      )

 cart.    s(10) = (  0.0000000  0.0000000 -1.0000000 )
                  (  0.0000000 -1.0000000  0.0000000 )
                  ( -1.0000000  0.0000000  0.0000000 )


      isym = 11      90 deg rotation - cart. axis [0,1,0]        

 cryst.   s(11) = (     0          0         -1      )
                  (     0          1          0      )
                  (     1          0          0      )

 cart.    s(11) = (  0.0000000  0.0000000  1.0000000 )
                  (  0.0000000  1.0000000  0.0000000 )
                  ( -1.0000000  0.0000000  0.0000000 )


      isym = 12      90 deg rotation - cart. axis [0,-1,0]       

 cryst.   s(12) = (     0          0          1      )
                  (     0          1          0      )
                  (    -1          0          0      )

 cart.    s(12) = (  0.0000000  0.0000000 -1.0000000 )
                  (  0.0000000  1.0000000  0.0000000 )
                  (  1.0000000  0.0000000  0.0000000 )


      isym = 13     180 deg rotation - cart. axis [0,1,1]        

 cryst.   s(13) = (    -1          0          0      )
                  (     0          0          1      )
                  (     0          1          0      )

 cart.    s(13) = ( -1.0000000  0.0000000  0.0000000 )
                  (  0.0000000  0.0000000  1.0000000 )
                  (  0.0000000  1.0000000  0.0000000 )


      isym = 14     180 deg rotation - cart. axis [0,1,-1]       

 cryst.   s(14) = (    -1          0          0      )
                  (     0          0         -1      )
                  (     0         -1          0      )

 cart.    s(14) = ( -1.0000000  0.0000000  0.0000000 )
                  (  0.0000000  0.0000000 -1.0000000 )
                  (  0.0000000 -1.0000000  0.0000000 )


      isym = 15      90 deg rotation - cart. axis [-1,0,0]       

 cryst.   s(15) = (     1          0          0      )
                  (     0          0         -1      )
                  (     0          1          0      )

 cart.    s(15) = (  1.0000000  0.0000000  0.0000000 )
                  (  0.0000000  0.0000000  1.0000000 )
                  (  0.0000000 -1.0000000  0.0000000 )


      isym = 16      90 deg rotation - cart. axis [1,0,0]        

 cryst.   s(16) = (     1          0          0      )
                  (     0          0          1      )
                  (     0         -1          0      )

 cart.    s(16) = (  1.0000000  0.0000000  0.0000000 )
                  (  0.0000000  0.0000000 -1.0000000 )
                  (  0.0000000  1.0000000  0.0000000 )


      isym = 17     120 deg rotation - cart. axis [-1,-1,-1]     

 cryst.   s(17) = (     0          0          1      )
                  (     1          0          0      )
                  (     0          1          0      )

 cart.    s(17) = (  0.0000000  1.0000000  0.0000000 )
                  (  0.0000000  0.0000000  1.0000000 )
                  (  1.0000000  0.0000000  0.0000000 )


      isym = 18     120 deg rotation - cart. axis [-1,1,1]       

 cryst.   s(18) = (     0          0         -1      )
                  (    -1          0          0      )
                  (     0          1          0      )

 cart.    s(18) = (  0.0000000 -1.0000000  0.0000000 )
                  (  0.0000000  0.0000000  1.0000000 )
                  ( -1.0000000  0.0000000  0.0000000 )


      isym = 19     120 deg rotation - cart. axis [1,1,-1]       

 cryst.   s(19) = (     0          0         -1      )
                  (     1          0          0      )
                  (     0         -1          0      )

 cart.    s(19) = (  0.0000000  1.0000000  0.0000000 )
                  (  0.0000000  0.0000000 -1.0000000 )
                  ( -1.0000000  0.0000000  0.0000000 )


      isym = 20     120 deg rotation - cart. axis [1,-1,1]       

 cryst.   s(20) = (     0          0          1      )
                  (    -1          0          0      )
                  (     0         -1          0      )

 cart.    s(20) = (  0.0000000 -1.0000000  0.0000000 )
                  (  0.0000000  0.0000000 -1.0000000 )
                  (  1.0000000  0.0000000  0.0000000 )


      isym = 21     120 deg rotation - cart. axis [1,1,1]        

 cryst.   s(21) = (     0          1          0      )
                  (     0          0          1      )
                  (     1          0          0      )

 cart.    s(21) = (  0.0000000  0.0000000  1.0000000 )
                  (  1.0000000  0.0000000  0.0000000 )
                  (  0.0000000  1.0000000  0.0000000 )


      isym = 22     120 deg rotation - cart. axis [-1,1,-1]      

 cryst.   s(22) = (     0         -1          0      )
                  (     0          0         -1      )
                  (     1          0          0      )

 cart.    s(22) = (  0.0000000  0.0000000  1.0000000 )
                  ( -1.0000000  0.0000000  0.0000000 )
                  (  0.0000000 -1.0000000  0.0000000 )


      isym = 23     120 deg rotation - cart. axis [1,-1,-1]      

 cryst.   s(23) = (     0         -1          0      )
                  (     0          0          1      )
                  (    -1          0          0      )

 cart.    s(23) = (  0.0000000  0.0000000 -1.0000000 )
                  ( -1.0000000  0.0000000  0.0000000 )
                  (  0.0000000  1.0000000  0.0000000 )


      isym = 24     120 deg rotation - cart. axis [-1,-1,1]      

 cryst.   s(24) = (     0          1          0      )
                  (     0          0         -1      )
                  (    -1          0          0      )

 cart.    s(24) = (  0.0000000  0.0000000 -1.0000000 )
                  (  1.0000000  0.0000000  0.0000000 )
                  (  0.0000000 -1.0000000  0.0000000 )


      isym = 25     inversion                                    

 cryst.   s(25) = (    -1          0          0      )
                  (     0         -1          0      )
                  (     0          0         -1      )

 cart.    s(25) = ( -1.0000000  0.0000000  0.0000000 )
                  (  0.0000000 -1.0000000  0.0000000 )
                  (  0.0000000  0.0000000 -1.0000000 )


      isym = 26     inv. 180 deg rotation - cart. axis [0,0,1]   

 cryst.   s(26) = (     1          0          0      )
                  (     0          1          0      )
                  (     0          0         -1      )

 cart.    s(26) = (  1.0000000  0.0000000  0.0000000 )
                  (  0.0000000  1.0000000  0.0000000 )
                  (  0.0000000  0.0000000 -1.0000000 )


      isym = 27     inv. 180 deg rotation - cart. axis [0,1,0]   

 cryst.   s(27) = (     1          0          0      )
                  (     0         -1          0      )
                  (     0          0          1      )

 cart.    s(27) = (  1.0000000  0.0000000  0.0000000 )
                  (  0.0000000 -1.0000000  0.0000000 )
                  (  0.0000000  0.0000000  1.0000000 )


      isym = 28     inv. 180 deg rotation - cart. axis [1,0,0]   

 cryst.   s(28) = (    -1          0          0      )
                  (     0          1          0      )
                  (     0          0          1      )

 cart.    s(28) = ( -1.0000000  0.0000000  0.0000000 )
                  (  0.0000000  1.0000000  0.0000000 )
                  (  0.0000000  0.0000000  1.0000000 )


      isym = 29     inv. 180 deg rotation - cart. axis [1,1,0]   

 cryst.   s(29) = (     0         -1          0      )
                  (    -1          0          0      )
                  (     0          0          1      )

 cart.    s(29) = (  0.0000000 -1.0000000  0.0000000 )
                  ( -1.0000000  0.0000000  0.0000000 )
                  (  0.0000000  0.0000000  1.0000000 )


      isym = 30     inv. 180 deg rotation - cart. axis [1,-1,0]  

 cryst.   s(30) = (     0          1          0      )
                  (     1          0          0      )
                  (     0          0          1      )

 cart.    s(30) = (  0.0000000  1.0000000  0.0000000 )
                  (  1.0000000  0.0000000  0.0000000 )
                  (  0.0000000  0.0000000  1.0000000 )


      isym = 31     inv.  90 deg rotation - cart. axis [0,0,-1]  

 cryst.   s(31) = (     0          1          0      )
                  (    -1          0          0      )
                  (     0          0         -1      )

 cart.    s(31) = (  0.0000000 -1.0000000  0.0000000 )
                  (  1.0000000  0.0000000  0.0000000 )
                  (  0.0000000  0.0000000 -1.0000000 )


      isym = 32     inv.  90 deg rotation - cart. axis [0,0,1]   

 cryst.   s(32) = (     0         -1          0      )
                  (     1          0          0      )
                  (     0          0         -1      )

 cart.    s(32) = (  0.0000000  1.0000000  0.0000000 )
                  ( -1.0000000  0.0000000  0.0000000 )
                  (  0.0000000  0.0000000 -1.0000000 )


      isym = 33     inv. 180 deg rotation - cart. axis [1,0,1]   

 cryst.   s(33) = (     0          0         -1      )
                  (     0          1          0      )
                  (    -1          0          0      )

 cart.    s(33) = (  0.0000000  0.0000000 -1.0000000 )
                  (  0.0000000  1.0000000  0.0000000 )
                  ( -1.0000000  0.0000000  0.0000000 )


      isym = 34     inv. 180 deg rotation - cart. axis [-1,0,1]  

 cryst.   s(34) = (     0          0          1      )
                  (     0          1          0      )
                  (     1          0          0      )

 cart.    s(34) = (  0.0000000  0.0000000  1.0000000 )
                  (  0.0000000  1.0000000  0.0000000 )
                  (  1.0000000  0.0000000  0.0000000 )


      isym = 35     inv.  90 deg rotation - cart. axis [0,1,0]   

 cryst.   s(35) = (     0          0          1      )
                  (     0         -1          0      )
                  (    -1          0          0      )

 cart.    s(35) = (  0.0000000  0.0000000 -1.0000000 )
                  (  0.0000000 -1.0000000  0.0000000 )
                  (  1.0000000  0.0000000  0.0000000 )


      isym = 36     inv.  90 deg rotation - cart. axis [0,-1,0]  

 cryst.   s(36) = (     0          0         -1      )
                  (     0         -1          0      )
                  (     1          0          0      )

 cart.    s(36) = (  0.0000000  0.0000000  1.0000000 )
                  (  0.0000000 -1.0000000  0.0000000 )
                  ( -1.0000000  0.0000000  0.0000000 )


      isym = 37     inv. 180 deg rotation - cart. axis [0,1,1]   

 cryst.   s(37) = (     1          0          0      )
                  (     0          0         -1      )
                  (     0         -1          0      )

 cart.    s(37) = (  1.0000000  0.0000000  0.0000000 )
                  (  0.0000000  0.0000000 -1.0000000 )
                  (  0.0000000 -1.0000000  0.0000000 )


      isym = 38     inv. 180 deg rotation - cart. axis [0,1,-1]  

 cryst.   s(38) = (     1          0          0      )
                  (     0          0          1      )
                  (     0          1          0      )

 cart.    s(38) = (  1.0000000  0.0000000  0.0000000 )
                  (  0.0000000  0.0000000  1.0000000 )
                  (  0.0000000  1.0000000  0.0000000 )


      isym = 39     inv.  90 deg rotation - cart. axis [-1,0,0]  

 cryst.   s(39) = (    -1          0          0      )
                  (     0          0          1      )
                  (     0         -1          0      )

 cart.    s(39) = ( -1.0000000  0.0000000  0.0000000 )
                  (  0.0000000  0.0000000 -1.0000000 )
                  (  0.0000000  1.0000000  0.0000000 )


      isym = 40     inv.  90 deg rotation - cart. axis [1,0,0]   

 cryst.   s(40) = (    -1          0          0      )
                  (     0          0         -1      )
                  (     0          1          0      )

 cart.    s(40) = ( -1.0000000  0.0000000  0.0000000 )
                  (  0.0000000  0.0000000  1.0000000 )
                  (  0.0000000 -1.0000000  0.0000000 )


      isym = 41     inv. 120 deg rotation - cart. axis [-1,-1,-1]

 cryst.   s(41) = (     0          0         -1      )
                  (    -1          0          0      )
                  (     0         -1          0      )

 cart.    s(41) = (  0.0000000 -1.0000000  0.0000000 )
                  (  0.0000000  0.0000000 -1.0000000 )
                  ( -1.0000000  0.0000000  0.0000000 )


      isym = 42     inv. 120 deg rotation - cart. axis [-1,1,1]  

 cryst.   s(42) = (     0          0          1      )
                  (     1          0          0      )
                  (     0         -1          0      )

 cart.    s(42) = (  0.0000000  1.0000000  0.0000000 )
                  (  0.0000000  0.0000000 -1.0000000 )
                  (  1.0000000  0.0000000  0.0000000 )


      isym = 43     inv. 120 deg rotation - cart. axis [1,1,-1]  

 cryst.   s(43) = (     0          0          1      )
                  (    -1          0          0      )
                  (     0          1          0      )

 cart.    s(43) = (  0.0000000 -1.0000000  0.0000000 )
                  (  0.0000000  0.0000000  1.0000000 )
                  (  1.0000000  0.0000000  0.0000000 )


      isym = 44     inv. 120 deg rotation - cart. axis [1,-1,1]  

 cryst.   s(44) = (     0          0         -1      )
                  (     1          0          0      )
                  (     0          1          0      )

 cart.    s(44) = (  0.0000000  1.0000000  0.0000000 )
                  (  0.0000000  0.0000000  1.0000000 )
                  ( -1.0000000  0.0000000  0.0000000 )


      isym = 45     inv. 120 deg rotation - cart. axis [1,1,1]   

 cryst.   s(45) = (     0         -1          0      )
                  (     0          0         -1      )
                  (    -1          0          0      )

 cart.    s(45) = (  0.0000000  0.0000000 -1.0000000 )
                  ( -1.0000000  0.0000000  0.0000000 )
                  (  0.0000000 -1.0000000  0.0000000 )


      isym = 46     inv. 120 deg rotation - cart. axis [-1,1,-1] 

 cryst.   s(46) = (     0          1          0      )
                  (     0          0          1      )
                  (    -1          0          0      )

 cart.    s(46) = (  0.0000000  0.0000000 -1.0000000 )
                  (  1.0000000  0.0000000  0.0000000 )
                  (  0.0000000  1.0000000  0.0000000 )


      isym = 47     inv. 120 deg rotation - cart. axis [1,-1,-1] 

 cryst.   s(47) = (     0          1          0      )
                  (     0          0         -1      )
                  (     1          0          0      )

 cart.    s(47) = (  0.0000000  0.0000000  1.0000000 )
                  (  1.0000000  0.0000000  0.0000000 )
                  (  0.0000000 -1.0000000  0.0000000 )


      isym = 48     inv. 120 deg rotation - cart. axis [-1,-1,1] 

 cryst.   s(48) = (     0         -1          0      )
                  (     0          0          1      )
                  (     1          0          0      )

 cart.    s(48) = (  0.0000000  0.0000000  1.0000000 )
                  ( -1.0000000  0.0000000  0.0000000 )
                  (  0.0000000  1.0000000  0.0000000 )


   Cartesian axes

     site n.     atom                  positions (alat units)
         1           Mn  tau(   1) = (   0.0000000   0.0000000   0.0000000  )
         2           Mn  tau(   2) = (   0.0000000   0.5000000   0.5000000  )
         3           Mn  tau(   3) = (   0.5000000   0.0000000   0.5000000  )
         4           Mn  tau(   4) = (   0.5000000   0.5000000   0.0000000  )
         5           Ni  tau(   5) = (   0.2500000   0.7500000   0.7500000  )
         6           Ni  tau(   6) = (   0.2500000   0.2500000   0.7500000  )
         7           Ni  tau(   7) = (   0.2500000   0.2500000   0.2500000  )
         8           Ni  tau(   8) = (   0.2500000   0.7500000   0.2500000  )
         9           Ni  tau(   9) = (   0.7500000   0.7500000   0.2500000  )
        10           Ni  tau(  10) = (   0.7500000   0.2500000   0.2500000  )
        11           Ni  tau(  11) = (   0.7500000   0.2500000   0.7500000  )
        12           Ni  tau(  12) = (   0.7500000   0.7500000   0.7500000  )
        13           Sb  tau(  13) = (   0.0000000   0.0000000   0.5000000  )
        14           Sb  tau(  14) = (   0.0000000   0.5000000   0.0000000  )
        15           Sb  tau(  15) = (   0.5000000   0.0000000   0.0000000  )
        16           Sb  tau(  16) = (   0.5000000   0.5000000   0.5000000  )

   Crystallographic axes

     site n.     atom                  positions (cryst. coord.)
         1           Mn  tau(   1) = (  0.0000000  0.0000000  0.0000000  )
         2           Mn  tau(   2) = (  0.0000000  0.5000000  0.5000000  )
         3           Mn  tau(   3) = (  0.5000000  0.0000000  0.5000000  )
         4           Mn  tau(   4) = (  0.5000000  0.5000000  0.0000000  )
         5           Ni  tau(   5) = (  0.2500000  0.7500000  0.7500000  )
         6           Ni  tau(   6) = (  0.2500000  0.2500000  0.7500000  )
         7           Ni  tau(   7) = (  0.2500000  0.2500000  0.2500000  )
         8           Ni  tau(   8) = (  0.2500000  0.7500000  0.2500000  )
         9           Ni  tau(   9) = (  0.7500000  0.7500000  0.2500000  )
        10           Ni  tau(  10) = (  0.7500000  0.2500000  0.2500000  )
        11           Ni  tau(  11) = (  0.7500000  0.2500000  0.7500000  )
        12           Ni  tau(  12) = (  0.7500000  0.7500000  0.7500000  )
        13           Sb  tau(  13) = (  0.0000000  0.0000000  0.5000000  )
        14           Sb  tau(  14) = (  0.0000000  0.5000000  0.0000000  )
        15           Sb  tau(  15) = (  0.5000000  0.0000000  0.0000000  )
        16           Sb  tau(  16) = (  0.5000000  0.5000000  0.5000000  )

     number of k points=    10  Marzari-Vanderbilt smearing, width (Ry)=  0.0147
                       cart. coord. in units 2pi/alat
        k(    1) = (   0.0000000   0.0000000   0.0000000), wk =   0.0156250
        k(    2) = (   0.0000000   0.0000000   0.2500000), wk =   0.0937500
        k(    3) = (   0.0000000   0.0000000  -0.5000000), wk =   0.0468750
        k(    4) = (   0.0000000   0.2500000   0.2500000), wk =   0.1875000
        k(    5) = (   0.0000000   0.2500000  -0.5000000), wk =   0.1875000
        k(    6) = (   0.0000000  -0.5000000  -0.5000000), wk =   0.0468750
        k(    7) = (   0.2500000   0.2500000   0.2500000), wk =   0.1250000
        k(    8) = (   0.2500000   0.2500000  -0.5000000), wk =   0.1875000
        k(    9) = (   0.2500000  -0.5000000  -0.5000000), wk =   0.0937500
        k(   10) = (  -0.5000000  -0.5000000  -0.5000000), wk =   0.0156250

                       cryst. coord.
        k(    1) = (   0.0000000   0.0000000   0.0000000), wk =   0.0156250
        k(    2) = (   0.0000000   0.0000000   0.2500000), wk =   0.0937500
        k(    3) = (   0.0000000   0.0000000  -0.5000000), wk =   0.0468750
        k(    4) = (   0.0000000   0.2500000   0.2500000), wk =   0.1875000
        k(    5) = (   0.0000000   0.2500000  -0.5000000), wk =   0.1875000
        k(    6) = (   0.0000000  -0.5000000  -0.5000000), wk =   0.0468750
        k(    7) = (   0.2500000   0.2500000   0.2500000), wk =   0.1250000
        k(    8) = (   0.2500000   0.2500000  -0.5000000), wk =   0.1875000
        k(    9) = (   0.2500000  -0.5000000  -0.5000000), wk =   0.0937500
        k(   10) = (  -0.5000000  -0.5000000  -0.5000000), wk =   0.0156250

     Dense  grid:   550697 G-vectors     FFT dimensions: ( 108, 108, 108)

     Smooth grid:   106047 G-vectors     FFT dimensions: (  60,  60,  60)

     Dynamical RAM for                 wfc:      27.08 MB

     Dynamical RAM for     wfc (w. buffer):     568.76 MB

     Dynamical RAM for           str. fact:      25.21 MB

     Dynamical RAM for           local pot:       0.00 MB

     Dynamical RAM for          nlocal pot:      58.21 MB

     Dynamical RAM for                qrad:       6.72 MB

     Dynamical RAM for          rho,v,vnew:     108.08 MB

     Dynamical RAM for               rhoin:      36.03 MB

     Dynamical RAM for            rho*nmix:     268.90 MB

     Dynamical RAM for           G-vectors:      32.32 MB

     Dynamical RAM for          h,s,v(r/c):       3.29 MB

     Dynamical RAM for          <psi|beta>:       0.59 MB

     Dynamical RAM for                 psi:      54.17 MB

     Dynamical RAM for                hpsi:      54.17 MB

     Dynamical RAM for                spsi:      54.17 MB

     Dynamical RAM for      wfcinit/wfcrot:      55.40 MB

     Dynamical RAM for           addusdens:    1638.58 MB

     Dynamical RAM for          addusforce:    1756.28 MB

     Dynamical RAM for         addusstress:    1701.60 MB

     Estimated static dynamical RAM per process >     926.61 MB

     Estimated max dynamical RAM per process >       2.88 GB
     Generating pointlists ...
     new r_m :   0.1786 (alat units)  2.0432 (a.u.) for type    1
     new r_m :   0.1786 (alat units)  2.0432 (a.u.) for type    2
     new r_m :   0.1786 (alat units)  2.0432 (a.u.) for type    3

     Initial potential from superposition of free atoms

     starting charge     223.9935, renormalised to     224.0000
     Starting wfcs are  136 randomized atomic wfcs
     Checking if some PAW data can be deallocated... 

     total cpu time spent up to now is       46.4 secs

     Self-consistent Calculation

     iteration #  1     ecut=    65.00 Ry     beta= 0.40
     Davidson diagonalization with overlap

---- Real-time Memory Report at c_bands before calling an iterative solver
          1922 MiB given to the printing process from OS
             0 MiB allocation reported by mallinfo(arena+hblkhd)
          5274 MiB available memory on the node where the printing process lives
------------------
     ethr =  1.00E-02,  avg # of iterations =  4.2

     negative rho (up, down):  0.000E+00 7.760E-03

     total cpu time spent up to now is      169.8 secs

     total energy              =   -5968.17358465 Ry
     estimated scf accuracy    <      15.24353323 Ry

     total magnetization       =    22.45 Bohr mag/cell
     absolute magnetization    =    23.43 Bohr mag/cell

     iteration #  2     ecut=    65.00 Ry     beta= 0.40
     Davidson diagonalization with overlap

---- Real-time Memory Report at c_bands before calling an iterative solver
          2664 MiB given to the printing process from OS
             0 MiB allocation reported by mallinfo(arena+hblkhd)
          5185 MiB available memory on the node where the printing process lives
------------------
     ethr =  6.81E-03,  avg # of iterations =  2.0

     negative rho (up, down):  0.000E+00 2.892E-03

     total cpu time spent up to now is      277.8 secs

     total energy              =   -5967.64294162 Ry
     estimated scf accuracy    <       6.85055932 Ry

     total magnetization       =    25.08 Bohr mag/cell
     absolute magnetization    =    26.02 Bohr mag/cell

     iteration #  3     ecut=    65.00 Ry     beta= 0.40
     Davidson diagonalization with overlap

---- Real-time Memory Report at c_bands before calling an iterative solver
          2672 MiB given to the printing process from OS
             0 MiB allocation reported by mallinfo(arena+hblkhd)
          5174 MiB available memory on the node where the printing process lives
------------------
     ethr =  3.06E-03,  avg # of iterations =  2.7

     negative rho (up, down):  0.000E+00 4.230E-03

     total cpu time spent up to now is      393.1 secs

     total energy              =   -5969.15201884 Ry
     estimated scf accuracy    <      23.02634361 Ry

     total magnetization       =    15.36 Bohr mag/cell
     absolute magnetization    =    23.37 Bohr mag/cell

     iteration #  4     ecut=    65.00 Ry     beta= 0.40
     Davidson diagonalization with overlap

---- Real-time Memory Report at c_bands before calling an iterative solver
          2678 MiB given to the printing process from OS
             0 MiB allocation reported by mallinfo(arena+hblkhd)
          5179 MiB available memory on the node where the printing process lives
------------------
     ethr =  3.06E-03,  avg # of iterations =  1.4

     negative rho (up, down):  0.000E+00 7.497E-03

     total cpu time spent up to now is      492.3 secs

     total energy              =   -5969.60547521 Ry
     estimated scf accuracy    <       7.74474562 Ry

     total magnetization       =    18.94 Bohr mag/cell
     absolute magnetization    =    25.49 Bohr mag/cell

     iteration #  5     ecut=    65.00 Ry     beta= 0.40
     Davidson diagonalization with overlap

---- Real-time Memory Report at c_bands before calling an iterative solver
          2685 MiB given to the printing process from OS
             0 MiB allocation reported by mallinfo(arena+hblkhd)
          5165 MiB available memory on the node where the printing process lives
------------------
     ethr =  3.06E-03,  avg # of iterations =  1.6

     negative rho (up, down):  0.000E+00 7.560E-04

     total cpu time spent up to now is      592.1 secs

     total energy              =   -5969.60116417 Ry
     estimated scf accuracy    <       5.10236138 Ry

     total magnetization       =    18.97 Bohr mag/cell
     absolute magnetization    =    22.27 Bohr mag/cell

     iteration #  6     ecut=    65.00 Ry     beta= 0.40
     Davidson diagonalization with overlap

---- Real-time Memory Report at c_bands before calling an iterative solver
          2691 MiB given to the printing process from OS
             0 MiB allocation reported by mallinfo(arena+hblkhd)
          5161 MiB available memory on the node where the printing process lives
------------------
     ethr =  2.28E-03,  avg # of iterations =  1.7

     negative rho (up, down):  0.000E+00 5.390E-03

     total cpu time spent up to now is      692.6 secs

     total energy              =   -5969.89796484 Ry
     estimated scf accuracy    <       1.04091565 Ry

     total magnetization       =    20.34 Bohr mag/cell
     absolute magnetization    =    22.95 Bohr mag/cell

     iteration #  7     ecut=    65.00 Ry     beta= 0.40
     Davidson diagonalization with overlap

---- Real-time Memory Report at c_bands before calling an iterative solver
          2698 MiB given to the printing process from OS
             0 MiB allocation reported by mallinfo(arena+hblkhd)
          5145 MiB available memory on the node where the printing process lives
------------------
     ethr =  4.65E-04,  avg # of iterations =  4.8

     negative rho (up, down):  0.000E+00 2.457E-03

     total cpu time spent up to now is      810.5 secs

     total energy              =   -5970.01726618 Ry
     estimated scf accuracy    <       1.70550948 Ry

     total magnetization       =    17.07 Bohr mag/cell
     absolute magnetization    =    18.60 Bohr mag/cell

     iteration #  8     ecut=    65.00 Ry     beta= 0.40
     Davidson diagonalization with overlap

---- Real-time Memory Report at c_bands before calling an iterative solver
          2705 MiB given to the printing process from OS
             0 MiB allocation reported by mallinfo(arena+hblkhd)
          5144 MiB available memory on the node where the printing process lives
------------------
     ethr =  4.65E-04,  avg # of iterations =  1.1

     negative rho (up, down):  0.000E+00 2.310E-03

     total cpu time spent up to now is      907.4 secs

     total energy              =   -5970.07273543 Ry
     estimated scf accuracy    <       1.57292103 Ry

     total magnetization       =    16.33 Bohr mag/cell
     absolute magnetization    =    17.75 Bohr mag/cell

     iteration #  9     ecut=    65.00 Ry     beta= 0.40
     Davidson diagonalization with overlap

---- Real-time Memory Report at c_bands before calling an iterative solver
          2711 MiB given to the printing process from OS
             0 MiB allocation reported by mallinfo(arena+hblkhd)
          5134 MiB available memory on the node where the printing process lives
------------------
     ethr =  4.65E-04,  avg # of iterations =  1.0

     negative rho (up, down):  0.000E+00 6.667E-04

     total cpu time spent up to now is     1003.9 secs

     total energy              =   -5970.07204128 Ry
     estimated scf accuracy    <       1.69700468 Ry

     total magnetization       =    16.34 Bohr mag/cell
     absolute magnetization    =    17.78 Bohr mag/cell

     iteration # 10     ecut=    65.00 Ry     beta= 0.40
     Davidson diagonalization with overlap

---- Real-time Memory Report at c_bands before calling an iterative solver
          2718 MiB given to the printing process from OS
             0 MiB allocation reported by mallinfo(arena+hblkhd)
          5118 MiB available memory on the node where the printing process lives
------------------
     ethr =  4.65E-04,  avg # of iterations =  1.2

     total cpu time spent up to now is     1101.6 secs

     total energy              =   -5970.06633807 Ry
     estimated scf accuracy    <       1.52458731 Ry

     total magnetization       =    16.28 Bohr mag/cell
     absolute magnetization    =    17.71 Bohr mag/cell

     iteration # 11     ecut=    65.00 Ry     beta= 0.40
     Davidson diagonalization with overlap

---- Real-time Memory Report at c_bands before calling an iterative solver
          2718 MiB given to the printing process from OS
             0 MiB allocation reported by mallinfo(arena+hblkhd)
          5105 MiB available memory on the node where the printing process lives
------------------
     ethr =  4.65E-04,  avg # of iterations =  1.1

     total cpu time spent up to now is     1199.0 secs

     total energy              =   -5970.07127090 Ry
     estimated scf accuracy    <       0.09311001 Ry

     total magnetization       =    16.22 Bohr mag/cell
     absolute magnetization    =    17.27 Bohr mag/cell

     iteration # 12     ecut=    65.00 Ry     beta= 0.40
     Davidson diagonalization with overlap

---- Real-time Memory Report at c_bands before calling an iterative solver
          2718 MiB given to the printing process from OS
             0 MiB allocation reported by mallinfo(arena+hblkhd)
          5132 MiB available memory on the node where the printing process lives
------------------
     ethr =  4.16E-05,  avg # of iterations =  3.9

     total cpu time spent up to now is     1303.1 secs

     total energy              =   -5970.06863825 Ry
     estimated scf accuracy    <       0.03532813 Ry

     total magnetization       =    16.09 Bohr mag/cell
     absolute magnetization    =    17.07 Bohr mag/cell

     iteration # 13     ecut=    65.00 Ry     beta= 0.40
     Davidson diagonalization with overlap

---- Real-time Memory Report at c_bands before calling an iterative solver
          2718 MiB given to the printing process from OS
             0 MiB allocation reported by mallinfo(arena+hblkhd)
          5118 MiB available memory on the node where the printing process lives
------------------
     ethr =  1.58E-05,  avg # of iterations =  2.5

     total cpu time spent up to now is     1405.0 secs

     total energy              =   -5970.06352208 Ry
     estimated scf accuracy    <       0.02227085 Ry

     total magnetization       =    16.25 Bohr mag/cell
     absolute magnetization    =    17.18 Bohr mag/cell

     iteration # 14     ecut=    65.00 Ry     beta= 0.40
     Davidson diagonalization with overlap

---- Real-time Memory Report at c_bands before calling an iterative solver
          2718 MiB given to the printing process from OS
             0 MiB allocation reported by mallinfo(arena+hblkhd)
          5121 MiB available memory on the node where the printing process lives
------------------
     ethr =  9.94E-06,  avg # of iterations =  3.8

     total cpu time spent up to now is     1520.8 secs

     total energy              =   -5970.06668336 Ry
     estimated scf accuracy    <       0.02861346 Ry

     total magnetization       =    16.03 Bohr mag/cell
     absolute magnetization    =    16.88 Bohr mag/cell

     iteration # 15     ecut=    65.00 Ry     beta= 0.40
     Davidson diagonalization with overlap

---- Real-time Memory Report at c_bands before calling an iterative solver
          2718 MiB given to the printing process from OS
             0 MiB allocation reported by mallinfo(arena+hblkhd)
          5130 MiB available memory on the node where the printing process lives
------------------
